 PROCESS            2  OF            4  WORKING
 PROCESS            1  OF            4  WORKING
 PROCESS            0  OF            4  WORKING
 PROCESS            3  OF            4  WORKING

         
 *******************************************************************************
 *                                                                             *
 *                               CRYSTAL17                                     *
 *                      public : 1.0.2 - March 1st, 2018                       *
 *                       HTTP://WWW.CRYSTAL.UNITO.IT                           *
 *                                                                             *
 *                              MAIN AUTHORS                                   *
 *                                                                             *
 *  R. DOVESI(1,11), V.R. SAUNDERS(2), C. ROETTI(1,11), R. ORLANDO(1,11),      *
 *  C.M. ZICOVICH-WILSON(1,3), F. PASCALE(4), B. CIVALLERI(1,11),              *
 *  K. DOLL(5), N.M. HARRISON(2,6), I.J. BUSH(7), Ph. D'ARCO(8),               *
 *  M. LLUNELL(9), M. CAUSA'(10), Y. NOEL(8), L. MASCHIO(1,11), A. ERBA(1,11)  *
 *  M. RE'RAT(14), S. CASASSA(1,11)                                            *
 *                                                                             *
 *        CONTRIBUTIONS TO THE CODE HAVE ALSO BEEN GIVEN BY                    *
 *                                                                             *
 *  M. FERRABONE(1,11), M. DE LA PIERRE(1,11), M. FERRERO(1,11),               *
 *  J. BAIMA(1,11), E. ALBANESE(1,11), M.F. PEINTINGER(12), R. BAST(13),       *
 *  B. KIRTMAN(15), V. LACIVITA(1,11), R. DEMICHELIS(1,16)                     *
 *  G. BRANDEBURG(17), S. SALUSTRO(1,11), G. SANSONE(1,11)                     *
 *  M.T. RUGGIERO(18)                                                          *
 *                                                                             *
 * (1) THEORETICAL CHEMISTRY GROUP - UNIVERSITA' DI TORINO - TORINO (ITALY)    *
 * (2) COMPUTATIONAL SCIENCE & ENGINEERING DEPARTMENT - STFC DARESBURY (UK)    *
 * (3) UNIVERSIDAD AUTONOMA DEL ESTADO DE MORELOS - CUERNAVACA (MEXICO)        *
 * (4) UNIVERSITE' DE LORRAINE - NANCY (FRANCE)                                *
 * (5) UNIVERSITAET STUTTGART- STUTTGART (GERMANY)                             *
 * (6) IMPERIAL COLLEGE - LONDON (UK)                                          *
 * (7) OXFORD E-RESEARCH CENTRE - OXFORD (UK)                                  *
 * (8) UPMC - SORBONNE UNIVERSITES - PARIS (FRANCE)                            *
 * (9) UNIVERSIDAD DE BARCELONA - BARCELONA (SPAIN)                            *
 *(10) UNIVERSITA' DI NAPOLI "FEDERICO II" - NAPOLI (ITALY)                    *
 *(11) NIS - NANOSTRUCTURED INTERFACES AND SURFACES - TORINO (ITALY)           *
 *(12) MPI FUER CHEMISCHE ENERGIEKONVERSION - MUELHEIM AN DER RUHR (GERMANY)   *
 *(13) UNIVERSITY OF TROMSO - TROMSO (NORWAY)                                  *
 *(14) UNIVERSITE' DE PAU ET DES PAYS DE L'ADOUR - PAU (FRANCE)                *
 *(15) UNIVERSITY OF CALIFORNIA SANTA BARBARA - SANTA BARBARA (USA)            *
 *(16) CURTIN UNIVERSITY - PERTH (AUSTRALIA)                                   *
 *(17) UNIVERSITY COLLEGE LONDON - LONDON (UK)                                 *
 *(18) CAMBRIDGE UNIVERSITY - CAMBRIDGE (UK)                                   *
 *                                                                             *
 *******************************************************************************
 EEEEEEEEEE STARTING  DATE 18 06 2019 TIME 03:25:55.8
 Crystal calc                                                                    

 GEOMETRY INPUT FROM EXTERNAL FILE (FORTRAN UNIT 34)
 3D - CRYSTAL 

 *******************************************************************************
 LATTICE PARAMETERS  (ANGSTROMS AND DEGREES) - PRIMITIVE CELL
       A          B          C        ALPHA      BETA     GAMMA        VOLUME
    5.89936    7.93896    7.01118    90.00000  90.00000  90.00000    328.366845

 NUMBER OF IRREDUCIBLE ATOMS IN THE CELL:    2

 CARTESIAN COORDINATES (ANGSTROM) - IRREDUCIBLE ATOMS AND SYMMETRY RELATED

 AT.IRR.  AT  AT.N.          X                   Y                   Z
     1     1    17    1.468940348000E+00  1.016186242000E+00  4.085414856000E+00
     1     2    17    1.480739066000E+00  2.953291265000E+00  5.798246240000E-01
     1     3    17   -1.480739066000E+00  2.953291265000E+00  2.925765607000E+00
     1     4    17   -1.468940348000E+00  1.016186242000E+00 -5.798246250000E-01
     1     5    17   -1.468940348000E+00 -1.016186242000E+00  2.925765607000E+00
     1     6    17   -1.480739066000E+00 -2.953291264000E+00 -5.798246250000E-01
     1     7    17    1.480739066000E+00 -2.953291264000E+00 -2.925765607000E+00
     1     8    17    1.468940348000E+00 -1.016186242000E+00  5.798246240000E-01
     9     9    20    0.000000000000E+00  2.889779625000E+00  5.258385347000E+00
     9    10    20   -2.949679414000E+00  1.079697882000E+00  1.752795115000E+00
     9    11    20    0.000000000000E+00 -2.889779625000E+00  1.752795116000E+00
     9    12    20   -2.949679414000E+00 -1.079697881000E+00 -1.752795116000E+00
 NUMBER OF SYMMETRY OPERATORS         :    8
 *******************************************************************************
 LATTICE PARAMETERS (ANGSTROMS AND DEGREES) - BOHR = 0.5291772083 ANGSTROM
 PRIMITIVE CELL - CENTRING CODE 1/0 VOLUME=   328.366845 - DENSITY  2.223 g/cm^3
         A              B              C           ALPHA      BETA       GAMMA 
     5.89935883     7.93895501     7.01118046    90.000000  90.000000  90.000000
 *******************************************************************************
 ATOMS IN THE ASYMMETRIC UNIT    2 - ATOMS IN THE UNIT CELL:   12
     ATOM                 X/A                 Y/B                 Z/C    
 *******************************************************************************
      1 T  17 CL    2.489999999708E-01  1.280000000423E-01 -4.172999999701E-01
      2 F  17 CL    2.510000000292E-01  3.720000000207E-01  8.269999995862E-02
      3 F  17 CL   -2.510000000292E-01  3.720000000207E-01  4.172999999701E-01
      4 F  17 CL   -2.489999999708E-01  1.280000000423E-01 -8.270000010125E-02
      5 F  17 CL   -2.489999999708E-01 -1.280000000423E-01  4.172999999701E-01
      6 F  17 CL   -2.510000000292E-01 -3.719999998947E-01 -8.270000010125E-02
      7 F  17 CL    2.510000000292E-01 -3.719999998947E-01 -4.172999999701E-01
      8 F  17 CL    2.489999999708E-01 -1.280000000423E-01  8.269999995862E-02
      9 T  20 CA    0.000000000000E+00  3.640000000338E-01 -2.500000000357E-01
     10 F  20 CA    5.000000000000E-01  1.360000000292E-01  2.499999998930E-01
     11 F  20 CA    0.000000000000E+00 -3.640000000338E-01  2.500000000357E-01
     12 F  20 CA    5.000000000000E-01 -1.359999999033E-01 -2.500000000357E-01

 T = ATOM BELONGING TO THE ASYMMETRIC UNIT
 *******************************************************************************
 * GEOMETRY EDITING - INPUT COORDINATES ARE GIVEN IN ANGSTROM         
 *******************************************************************************

 GEOMETRY NOW FULLY CONSISTENT WITH THE GROUP
 INFORMATION **** NEW DEFAULT **** FINALRUN 4 FOR GEOMETRY OPTIMIZATIONS
 INFORMATION **** NEW DEFAULT **** OPTGEOM OPTIMIZES BOTH ATOMIC COORDINATES AND CELL PARAMETERS
 INFORMATION **** NEW DEFAULT **** TOL. ON ATOMIC DISP TO REDEFINE REF. GEOMETRY: 0.8 Angs
 INFORMATION **** NEW DEFAULT **** N POINTS TO REDEFINE REF. GEOMETRY: N OF OPT DEGS OF FREEDOM
 INFORMATION **** NEW DEFAULT **** TOL. ON ENERGY TO REDEFINE REF. GEOMETRY: 10**-3*(5*N. ATOMS)

 IMPORTANT INFORMATION:
 THE COORDINATE SYSTEM ADOPTED IN THE OPTIMIZATION IS NOT IN
 GENERAL HOMOGENEOUS UNITS. FOR THIS REASON THE GRADIENT AND 
 HESSIAN MATRIX IN TERMS OF THIS SYSTEM ARE GIVEN WITHOUT
 UNITS. FOR MORE DETAILS SEE THE MANUAL.

 INITIAL TRUST RADIUS         0.50000 MAXIMUM TRUST RADIUS               4.00000
 MAXIMUM GRADIENT COMPONENT   0.00045 MAXIMUM DISPLACEMENT COMPONENT     0.00180
 R.M.S. OF GRADIENT COMPONENT 0.00030 R.M.S. OF DISPLACEMENT COMPONENTS  0.00120
 THRESHOLD ON ENERGY CHANGE 0.100E-06 EXTRAPOLATING POLYNOMIAL ORDER           2
 MAXIMUM ALLOWED NUMBER OF STEPS   -1 SORTING OF ENERGY POINTS:               NO
 ANALYTICAL  GRADIENT                 HESSIAN UPDATING                      BFGS
 STEP SIZE NUMERICAL GRADIENT 0.00100
 INITIAL HESSIAN MATRIX: SCHLEGEL MODEL 2
 *******************************************************************************


 ELAELAELAELAELAELAELAELAELAELAELAELAELAELAELAELAELAELAELAELAELAELAELAELAELAELA

                       ELASTIC CALCULATION

 INFORMATION **** TOLDEX ****  CONVERGENCE CRITERION FOR RMS DISPLACEMENT MODIFIED  6.200000E-04
 INFORMATION **** TOLDEG **** MODIFY CONVERGENCE CRITERION FOR RMS GRADIENT  3.000000E-04
 INFORMATION **** TOLDEE **** CONVERGENCE CRITERION FOR ENERGY MODIFIED: 10**-           8

 GCALCO - MAX INDICES DIRECT LATTICE VECTOR    17    13    14
 NO.OF VECTORS CREATED 6999 STARS 1052 RMAX   154.60948 BOHR

 GEOMETRY FOR WAVE FUNCTION - DIMENSIONALITY OF THE SYSTEM    3
 (NON PERIODIC DIRECTION: LATTICE PARAMETER FORMALLY SET TO 500)
 *******************************************************************************
 LATTICE PARAMETERS (ANGSTROMS AND DEGREES) - BOHR = 0.5291772083 ANGSTROM
 PRIMITIVE CELL - CENTRING CODE 1/0 VOLUME=   328.366845 - DENSITY  2.223 g/cm^3
         A              B              C           ALPHA      BETA       GAMMA 
     5.89935883     7.93895501     7.01118046    90.000000  90.000000  90.000000
 *******************************************************************************
 ATOMS IN THE ASYMMETRIC UNIT    2 - ATOMS IN THE UNIT CELL:   12
     ATOM                 X/A                 Y/B                 Z/C    
 *******************************************************************************
      1 T  17 CL    2.489999999708E-01  1.280000000423E-01 -4.172999999701E-01
      2 F  17 CL    2.510000000292E-01  3.720000000207E-01  8.269999995862E-02
      3 F  17 CL   -2.510000000292E-01  3.720000000207E-01  4.172999999701E-01
      4 F  17 CL   -2.489999999708E-01  1.280000000423E-01 -8.270000010125E-02
      5 F  17 CL   -2.489999999708E-01 -1.280000000423E-01  4.172999999701E-01
      6 F  17 CL   -2.510000000292E-01 -3.719999998947E-01 -8.270000010125E-02
      7 F  17 CL    2.510000000292E-01 -3.719999998947E-01 -4.172999999701E-01
      8 F  17 CL    2.489999999708E-01 -1.280000000423E-01  8.269999995862E-02
      9 T  20 CA    0.000000000000E+00  3.640000000338E-01 -2.500000000357E-01
     10 F  20 CA    5.000000000000E-01  1.360000000292E-01  2.499999998930E-01
     11 F  20 CA    0.000000000000E+00 -3.640000000338E-01  2.500000000357E-01
     12 F  20 CA    5.000000000000E-01 -1.359999999033E-01 -2.500000000357E-01

 T = ATOM BELONGING TO THE ASYMMETRIC UNIT

 ****    8 SYMMOPS - TRANSLATORS IN FRACTIONAL UNITS
 **** MATRICES AND TRANSLATORS IN THE CRYSTALLOGRAPHIC REFERENCE FRAME
   V INV                    ROTATION MATRICES                   TRANSLATORS
   1   1  1.00  0.00  0.00  0.00  1.00  0.00  0.00  0.00  1.00  0.00  0.00  0.00
   2   2 -1.00  0.00  0.00  0.00 -1.00  0.00  0.00  0.00  1.00  0.50  0.50  0.50
   3   3  1.00  0.00  0.00  0.00 -1.00  0.00  0.00  0.00 -1.00  0.50  0.50  0.00
   4   4 -1.00  0.00  0.00  0.00  1.00  0.00  0.00  0.00 -1.00  0.00  0.00  0.50
   5   5 -1.00  0.00  0.00  0.00 -1.00  0.00  0.00  0.00 -1.00  0.00  0.00  0.00
   6   6  1.00  0.00  0.00  0.00  1.00  0.00  0.00  0.00 -1.00  0.50  0.50  0.50
   7   7 -1.00  0.00  0.00  0.00  1.00  0.00  0.00  0.00  1.00  0.50  0.50  0.00
   8   8  1.00  0.00  0.00  0.00 -1.00  0.00  0.00  0.00  1.00  0.00  0.00  0.50

 DIRECT LATTICE VECTORS CARTESIAN COMPONENTS (ANGSTROM)
          X                    Y                    Z
   0.589935882800E+01   0.000000000000E+00   0.000000000000E+00
   0.000000000000E+00   0.793895501300E+01   0.000000000000E+00
   0.000000000000E+00   0.000000000000E+00   0.701118046300E+01


 CARTESIAN COORDINATES - PRIMITIVE CELL
 *******************************************************************************
 *      ATOM          X(ANGSTROM)         Y(ANGSTROM)         Z(ANGSTROM)
 *******************************************************************************
    1    17 CL    1.468940348000E+00  1.016186242000E+00  4.085414856000E+00
    2    17 CL    1.480739066000E+00  2.953291265000E+00  5.798246240000E-01
    3    17 CL   -1.480739066000E+00  2.953291265000E+00  2.925765607000E+00
    4    17 CL   -1.468940348000E+00  1.016186242000E+00 -5.798246250000E-01
    5    17 CL   -1.468940348000E+00 -1.016186242000E+00  2.925765607000E+00
    6    17 CL   -1.480739066000E+00 -2.953291264000E+00 -5.798246250000E-01
    7    17 CL    1.480739066000E+00 -2.953291264000E+00 -2.925765607000E+00
    8    17 CL    1.468940348000E+00 -1.016186242000E+00  5.798246240000E-01
    9    20 CA    0.000000000000E+00  2.889779625000E+00  5.258385347000E+00
   10    20 CA    2.949679414000E+00  1.079697882000E+00  1.752795115000E+00
   11    20 CA    0.000000000000E+00 -2.889779625000E+00  1.752795116000E+00
   12    20 CA    2.949679414000E+00 -1.079697881000E+00 -1.752795116000E+00

 *******************************************************************************
 LOCAL ATOMIC FUNCTIONS BASIS SET
 *******************************************************************************
   ATOM   X(AU)   Y(AU)   Z(AU)  N. TYPE  EXPONENT  S COEF   P COEF   D/F/G COEF
 *******************************************************************************
   1 CL   2.776   1.920   7.720
                                  1 S  
                                         6.951E+04 5.431E-04 0.000E+00 0.000E+00
                                         1.043E+04 4.199E-03 0.000E+00 0.000E+00
                                         2.373E+03 2.159E-02 0.000E+00 0.000E+00
                                         6.716E+02 8.460E-02 0.000E+00 0.000E+00
                                         2.184E+02 2.476E-01 0.000E+00 0.000E+00
                                         7.757E+01 4.702E-01 0.000E+00 0.000E+00
                                         2.889E+01 3.744E-01 0.000E+00 0.000E+00
                                  2 S  
                                         1.271E+02 2.518E-02 0.000E+00 0.000E+00
                                         3.934E+01 1.079E-01 0.000E+00 0.000E+00
                                         7.674E+00-2.741E-01 0.000E+00 0.000E+00
                                  3 S  
                                         3.875E+00 1.321E+00 0.000E+00 0.000E+00
                                         1.839E+00 6.864E-01 0.000E+00 0.000E+00
                                  4 S  
                                         4.499E-01 1.000E+00 0.000E+00 0.000E+00
                                  5 S  
                                         1.364E-01 1.000E+00 0.000E+00 0.000E+00
                           6-     8 P  
                                         6.665E+02 0.000E+00 2.363E-03 0.000E+00
                                         1.576E+02 0.000E+00 1.888E-02 0.000E+00
                                         5.026E+01 0.000E+00 8.721E-02 0.000E+00
                                         1.854E+01 0.000E+00 2.529E-01 0.000E+00
                                         7.294E+00 0.000E+00 4.351E-01 0.000E+00
                           9-    11 P  
                                         2.801E+00 0.000E+00 1.000E+00 0.000E+00
                          12-    14 P  
                                         7.396E-01 0.000E+00 1.000E+00 0.000E+00
                          15-    17 P  
                                         2.106E-01 0.000E+00 1.000E+00 0.000E+00
                          18-    22 D  
                                         2.373E-01 0.000E+00 0.000E+00 1.000E+00
   2 CL   2.798   5.581   1.096
   3 CL  -2.798   5.581   5.529
   4 CL  -2.776   1.920  -1.096
   5 CL  -2.776  -1.920   5.529
   6 CL  -2.798  -5.581  -1.096
   7 CL   2.798  -5.581  -5.529
   8 CL   2.776  -1.920   1.096
   9 CA   0.000   5.461   9.937
                                177 S  
                                         1.725E+05 2.332E-04 0.000E+00 0.000E+00
                                         2.586E+04 1.808E-03 0.000E+00 0.000E+00
                                         5.886E+03 9.394E-03 0.000E+00 0.000E+00
                                         1.666E+03 3.811E-02 0.000E+00 0.000E+00
                                         5.424E+02 1.233E-01 0.000E+00 0.000E+00
                                         1.946E+02 2.900E-01 0.000E+00 0.000E+00
                                         7.530E+01 4.059E-01 0.000E+00 0.000E+00
                                         2.957E+01 2.040E-01 0.000E+00 0.000E+00
                                178 S  
                                         1.912E+02-2.442E-02 0.000E+00 0.000E+00
                                         5.884E+01-1.155E-01 0.000E+00 0.000E+00
                                         8.964E+00 5.636E-01 0.000E+00 0.000E+00
                                         3.686E+00 5.671E-01 0.000E+00 0.000E+00
                                179 S  
                                         5.246E+00-2.283E-01 0.000E+00 0.000E+00
                                         8.486E-01 7.263E-01 0.000E+00 0.000E+00
                                180 S  
                                         1.307E+00 1.000E+00 0.000E+00 0.000E+00
                                181 S  
                                         3.803E-01 1.000E+00 0.000E+00 0.000E+00
                                182 S  
                                         1.601E-01 1.000E+00 0.000E+00 0.000E+00
                         183-   185 P  
                                         8.370E+02 0.000E+00 2.526E-03 0.000E+00
                                         1.979E+02 0.000E+00 2.008E-02 0.000E+00
                                         6.314E+01 0.000E+00 9.130E-02 0.000E+00
                                         2.328E+01 0.000E+00 2.525E-01 0.000E+00
                                         9.118E+00 0.000E+00 3.943E-01 0.000E+00
                                         3.634E+00 0.000E+00 2.301E-01 0.000E+00
                         186-   188 P  
                                         1.349E+01 0.000E+00-2.650E-02 0.000E+00
                                         1.814E+00 0.000E+00 5.509E-01 0.000E+00
                                         7.198E-01 0.000E+00 1.028E+00 0.000E+00
                         189-   191 P  
                                         3.611E-01 0.000E+00 1.000E+00 0.000E+00
                         192-   194 P  
                                         1.603E-01 0.000E+00 1.000E+00 0.000E+00
                         195-   199 D  
                                         7.886E-01 0.000E+00 0.000E+00 1.000E+00
  10 CA   5.574   2.040   3.312
  11 CA   0.000  -5.461   3.312
  12 CA   5.574  -2.040  -3.312
 INFORMATION **** SET_MPP **** PCRYSTAL CALCULATION
 INFORMATION **** READM2 **** NEW DEFAULT: FOCK/KS MATRIX MIXING SET TO 30 %
 INFORMATION **** READM2 **** NEW DEFAULT: FULL DIRECT SCF MODE
 INFORMATION **** READM2 **** NEW DEFAULT: COULOMB BIPOLAR BUFFER SET TO 32 Mb
 INFORMATION **** READM2 **** NEW DEFAULT: EXCHANGE BIPOLAR BUFFER SET TO 32 Mb

 *******************************************************************************
 NEW DEFAULT: DFT INTEGRATION GRID INCREASED TO XLGRID
 NEW DEFAULT: DIIS ACCELERATOR ACTIVE
 USE KEYWORD NODIIS TO TURN IT OFF
 *******************************************************************************

 *******************************************************************************
 N. OF ATOMS PER CELL        12  COULOMB OVERLAP TOL         (T1) 10**   -6
 NUMBER OF SHELLS           124  COULOMB PENETRATION TOL     (T2) 10**   -6
 NUMBER OF AO               268  EXCHANGE OVERLAP TOL        (T3) 10**   -6
 N. OF ELECTRONS PER CELL   216  EXCHANGE PSEUDO OVP (F(G))  (T4) 10**   -6
 CORE ELECTRONS PER CELL    152  EXCHANGE PSEUDO OVP (P(G))  (T5) 10**  -12
 N. OF SYMMETRY OPERATORS     8  POLE ORDER IN MONO ZONE                  4
 *******************************************************************************
 TYPE OF CALCULATION :  RESTRICTED CLOSED SHELL
 KOHN-SHAM HAMILTONIAN

 (EXCHANGE)[CORRELATION] FUNCTIONAL:(PERDEW-BURKE-ERNZERHOF)[PERDEW-BURKE-ERNZERHOF]


 HYBRID EXCHANGE - PERCENTAGE OF FOCK EXCHANGE    25.0000

 CAPPA:IS1  8;IS2  8;IS3  8; K PTS MONK NET 125; SYMMOPS:K SPACE   8;G SPACE   8

 *******************************************************************************
 MAX NUMBER OF SCF CYCLES      50  CONVERGENCE ON DELTAP        10**-16
 WEIGHT OF F(I) IN F(I+1)      30% CONVERGENCE ON ENERGY        10**- 8
 SHRINK. FACT.(MONKH.)    8  8  8  NUMBER OF K POINTS IN THE IBZ    125
 SHRINKING FACTOR(GILAT NET)    8  NUMBER OF K POINTS(GILAT NET)    125
 *******************************************************************************
 *** K POINTS COORDINATES (OBLIQUE COORDINATES IN UNITS OF IS =  8)
   1-R(  0  0  0)   2-C(  1  0  0)   3-C(  2  0  0)   4-C(  3  0  0)
   5-R(  4  0  0)   6-C(  0  1  0)   7-C(  1  1  0)   8-C(  2  1  0)
   9-C(  3  1  0)  10-C(  4  1  0)  11-C(  0  2  0)  12-C(  1  2  0)
  13-C(  2  2  0)  14-C(  3  2  0)  15-C(  4  2  0)  16-C(  0  3  0)
  17-C(  1  3  0)  18-C(  2  3  0)  19-C(  3  3  0)  20-C(  4  3  0)
  21-R(  0  4  0)  22-C(  1  4  0)  23-C(  2  4  0)  24-C(  3  4  0)
  25-R(  4  4  0)  26-C(  0  0  1)  27-C(  1  0  1)  28-C(  2  0  1)
  29-C(  3  0  1)  30-C(  4  0  1)  31-C(  0  1  1)  32-C(  1  1  1)
  33-C(  2  1  1)  34-C(  3  1  1)  35-C(  4  1  1)  36-C(  0  2  1)
  37-C(  1  2  1)  38-C(  2  2  1)  39-C(  3  2  1)  40-C(  4  2  1)
  41-C(  0  3  1)  42-C(  1  3  1)  43-C(  2  3  1)  44-C(  3  3  1)
  45-C(  4  3  1)  46-C(  0  4  1)  47-C(  1  4  1)  48-C(  2  4  1)
  49-C(  3  4  1)  50-C(  4  4  1)  51-C(  0  0  2)  52-C(  1  0  2)
  53-C(  2  0  2)  54-C(  3  0  2)  55-C(  4  0  2)  56-C(  0  1  2)
  57-C(  1  1  2)  58-C(  2  1  2)  59-C(  3  1  2)  60-C(  4  1  2)
  61-C(  0  2  2)  62-C(  1  2  2)  63-C(  2  2  2)  64-C(  3  2  2)
  65-C(  4  2  2)  66-C(  0  3  2)  67-C(  1  3  2)  68-C(  2  3  2)
  69-C(  3  3  2)  70-C(  4  3  2)  71-C(  0  4  2)  72-C(  1  4  2)
  73-C(  2  4  2)  74-C(  3  4  2)  75-C(  4  4  2)  76-C(  0  0  3)
  77-C(  1  0  3)  78-C(  2  0  3)  79-C(  3  0  3)  80-C(  4  0  3)
  81-C(  0  1  3)  82-C(  1  1  3)  83-C(  2  1  3)  84-C(  3  1  3)
  85-C(  4  1  3)  86-C(  0  2  3)  87-C(  1  2  3)  88-C(  2  2  3)
  89-C(  3  2  3)  90-C(  4  2  3)  91-C(  0  3  3)  92-C(  1  3  3)
  93-C(  2  3  3)  94-C(  3  3  3)  95-C(  4  3  3)  96-C(  0  4  3)
  97-C(  1  4  3)  98-C(  2  4  3)  99-C(  3  4  3) 100-C(  4  4  3)
 101-R(  0  0  4) 102-C(  1  0  4) 103-C(  2  0  4) 104-C(  3  0  4)
 105-R(  4  0  4) 106-C(  0  1  4) 107-C(  1  1  4) 108-C(  2  1  4)
 109-C(  3  1  4) 110-C(  4  1  4) 111-C(  0  2  4) 112-C(  1  2  4)
 113-C(  2  2  4) 114-C(  3  2  4) 115-C(  4  2  4) 116-C(  0  3  4)
 117-C(  1  3  4) 118-C(  2  3  4) 119-C(  3  3  4) 120-C(  4  3  4)
 121-R(  0  4  4) 122-C(  1  4  4) 123-C(  2  4  4) 124-C(  3  4  4)
 125-R(  4  4  4)

 DIRECT LATTICE VECTORS COMPON. (A.U.)     RECIP. LATTICE VECTORS COMPON. (A.U.) 
        X            Y            Z              X            Y            Z
   11.1481726    0.0000000    0.0000000      0.5636068    0.0000000    0.0000000
    0.0000000   15.0024508    0.0000000      0.0000000    0.4188106    0.0000000
    0.0000000    0.0000000   13.2492110      0.0000000    0.0000000    0.4742309

 DISK SPACE FOR EIGENVECTORS (FTN 10)    17381408 REALS

 SYMMETRY ADAPTION OF THE BLOCH FUNCTIONS ENABLED
 TTTTTTTTTTTTTTTTTTTTTTTTTTTTTT gordsh1     TELAPSE        0.33 TCPU        0.07

 MATRIX SIZE: P(G)  213932, F(G)   38216, P(G) IRR   14851, F(G) IRR    5338
 MAX G-VECTOR INDEX FOR 1- AND 2-ELECTRON INTEGRALS  87

 TTTTTTTTTTTTTTTTTTTTTTTTTTTTTT INPUT       TELAPSE        0.33 TCPU        0.08

 NEIGHBORS OF THE NON-EQUIVALENT ATOMS

 N = NUMBER OF NEIGHBORS AT DISTANCE R
    ATOM  N     R/ANG      R/AU   NEIGHBORS (ATOM LABELS AND CELL INDICES)
   1 CL   1     2.6541     5.0154    9 CA   0 0 0
   1 CL   1     2.7636     5.2225   10 CA   0 0 0
   1 CL   1     2.8216     5.3320   12 CA   0 0 1
   1 CL   2     3.7145     7.0195    3 CL   0 0 0    3 CL   1 0 0
   1 CL   1     3.7559     7.0975    5 CL   0 0 0
   1 CL   1     3.7596     7.1046    4 CL   0 0 1

   9 CA   2     2.6541     5.0154    1 CL   0 0 0    4 CL   0 0 1
   9 CA   2     2.7636     5.2225    2 CL   0 0 1    3 CL   0 0 0
   9 CA   2     2.8216     5.3320    6 CL   0 1 1    7 CL   0 1 1
   9 CA   2     4.1173     7.7806   11 CA   0 1 0   11 CA   0 1 1
   9 CA   2     4.7807     9.0343    5 CL   0 0 0    8 CL   0 0 1
   9 CA   2     4.8851     9.2314    5 CL   0 1 0    8 CL   0 1 1


 SYMMETRY ALLOWED ELASTIC DISTORTION 1
  0.5773503  0.0000000  0.0000000
  0.0000000  0.5773503  0.0000000
  0.0000000  0.0000000  0.5773503

 SYMMETRY ALLOWED ELASTIC DISTORTION 2
  0.8164966  0.0000000  0.0000000
  0.0000000 -0.4082483  0.0000000
  0.0000000  0.0000000 -0.4082483

 SYMMETRY ALLOWED ELASTIC DISTORTION 3
  0.0000000  0.0000000  0.0000000
  0.0000000  0.7071068  0.0000000
  0.0000000  0.0000000 -0.7071068

 SYMMETRY ALLOWED INTERNAL DEGREE(S) OF FREEDOM:   4
 TTTTTTTTTTTTTTTTTTTTTTTTTTTTTT SYMM        TELAPSE        0.36 TCPU        0.10
 TTTTTTTTTTTTTTTTTTTTTTTTTTTTTT INT_SCREEN  TELAPSE        0.36 TCPU        0.11

 ************************************************************************
 ************************************************************************
 * ELASTCON OPTION, W.F. PERGER, B. CIVALLERI, R. DOVESI                *
 * REFERENCES TO BE QUOTED WHEN USING THIS MODULE:                      *
 *                                                                      *
 * W.F. Perger, C. Criswell, B. Civalleri, R. Dovesi                    *
 * Ab-initio calculation of elastic constants of crystalline            *
 * systems with the CRYSTAL code                                        *
 * Comp. Phys. Comm. 180 (2009) 1753-1759                               *
 *                                                                      *
 * IT IS ASSUMED THAT THE INPUT IS FROM AN OPTIMIZED RUN                *

 CONVERGENCE CRITERION FOR ENERGY, TOLDEE =          1.0000E-08
 CONVERGENCE CRITERION FOR RMS GRADIENT, TOLDEG =    3.0000E-04
 CONVERGENCE CRITERION FOR RMS DISPLACEMENT, TOLDEX  6.2000E-04
 MAGNITUDE OF STEPSIZE FOR ADIMENSIONAL STRAINS =    1.0000E-02
 NUMBER OF POINTS (TOTAL) IN NUMERICAL 2ND DERIVATIVE=        3
 ************************************************************************
 ************************************************************************

 ************************************************************************

  Y. NOEL POST DOC. TURIN 2002

  THIS ROUTINE EVALUATES THE NON ZERO ELEMENTS OF THE ELASTIC TENSOR 

  ORDER OF THE TENSOR : 4

 |  1 A    1 B    1 C     .      .      .     |
 |         1 F    1 G     .      .      .     |
 |                1 I     .      .      .     |
 |                       1 H     .      .     |
 |                              1 E     .     |
 |                                     1 D    |

 EACH  LETTER   CORRESPONDS  TO  AN  INDEPENDENT  COMPONENT.
 INTERDEPENDENT COMPONENTS (WITH SAME LETTER) ARE RELATED BY
 THE COEFFICIENT THAT PRECEEDS EACH LETTER.

 ************************************************************************


 LIST OF ACTIVE DEFORMATIONS: 
             1
             2
             3
             4
             5
             6
 INFORMATION **** EXCBUF **** EXCH. BIPO BUFFER: WORDS USED =      538875

 DFT PARAMETERS

     ATOM       ELECTRONS   NET CHARGE   R(ANGSTROM)
   1  17  CL     17.0000      0.0000     0.99000000
   9  20  CA     20.0000      0.0000     1.97000000

 SIZE OF GRID=      37116
 TTTTTTTTTTTTTTTTTTTTTTTTTTTTTT MAKE_GRID2  TELAPSE        2.71 TCPU        2.45
 BECKE WEIGHT FUNCTION
 RADSAFE =     2.00
 TOLERANCES - DENSITY:10**- 6; POTENTIAL:10**- 9; GRID WGT:10**-14

 RADIAL INTEGRATION  - INTERVALS (POINTS,UPPER LIMIT):            1( 75,  4.0*R)

 ANGULAR INTEGRATION - INTERVALS (ACCURACY LEVEL [N. POINTS] UPPER LIMIT):
  1(  4[  86]   0.2)  2(  8[ 194]   0.5)  3( 12[ 350]   0.9)  4( 16[ 974]   3.5)
  5( 12[ 350]9999.0)
 TTTTTTTTTTTTTTTTTTTTTTTTTTTTTT INT_CALC    TELAPSE        2.75 TCPU        2.49
 EEEEEEEEEE INT_CALC TERMINATION  DATE 18 06 2019 TIME 03:25:58.4

 *******************************************************************************
 Crystal calc                                                                    
 CRYSTAL - SCF - TYPE OF CALCULATION :  RESTRICTED CLOSED SHELL
 *******************************************************************************

 CAPPA:IS1  8;IS2  8;IS3  8; K PTS MONK NET 125; SYMMOPS:K SPACE   8;G SPACE   8

 TTTTTTTTTTTTTTTTTTTTTTTTTTTTTT SDIK        TELAPSE        2.94 TCPU        2.69

 AAAAAAAAAAAAAAAAAAAAAAAAAAAAAAAAAAAAAAAAAAAAAAAAAAAAAAAAAAAAAAAAAAAAAAAAAAAAAAA
         ATOMIC WAVEFUNCTION(S)


 NUCLEAR CHARGE 17.0  SYMMETRY SPECIES            S    P
 N. ELECTRONS   17.0  NUMBER OF PRIMITIVE GTOS   14    8
                      NUMBER OF CONTRACTED GTOS   5    4
                      NUMBER OF CLOSED SHELLS     3    1
                      OPEN SHELL OCCUPATION       0    5

  ZNUC SCFIT  TOTAL HF ENERGY   KINETIC ENERGY   VIRIAL THEOREM ACCURACY
  17.0  11   -4.594486382E+02  4.597830258E+02 -1.999272727E+00  1.7E-06

 NUCLEAR CHARGE 20.0  SYMMETRY SPECIES            S    P
 N. ELECTRONS   20.0  NUMBER OF PRIMITIVE GTOS   17   11
                      NUMBER OF CONTRACTED GTOS   6    4
                      NUMBER OF CLOSED SHELLS     4    2
                      OPEN SHELL OCCUPATION       0    0

  ZNUC SCFIT  TOTAL HF ENERGY   KINETIC ENERGY   VIRIAL THEOREM ACCURACY
  20.0  10   -6.764828998E+02  6.773643644E+02 -1.998698685E+00  3.0E-06

 AAAAAAAAAAAAAAAAAAAAAAAAAAAAAAAAAAAAAAAAAAAAAAAAAAAAAAAAAAAAAAAAAAAAAAAAAAAAAAA

 CHARGE NORMALIZATION FACTOR   1.00000000
 TOTAL ATOMIC CHARGES:
  17.0000000  17.0000000  17.0000000  17.0000000  17.0000000  17.0000000
  17.0000000  17.0000000  20.0000000  20.0000000  20.0000000  20.0000000
 TTTTTTTTTTTTTTTTTTTTTTTTTTTTTT MOQGAD      TELAPSE        3.21 TCPU        2.95
 TTTTTTTTTTTTTTTTTTTTTTTTTTTTTT SHELLXN     TELAPSE        7.51 TCPU        7.25
 TTTTTTTTTTTTTTTTTTTTTTTTTTTTTT MONMO3      TELAPSE        8.30 TCPU        8.04
 NUMERICALLY INTEGRATED DENSITY    216.0001219926
 TTTTTTTTTTTTTTTTTTTTTTTTTTTTTT NUMDFT      TELAPSE        8.59 TCPU        8.33
 CYC   0 ETOT(AU) -6.389225985254E+03 DETOT -6.39E+03 tst  0.00E+00 PX  1.00E+00
 TTTTTTTTTTTTTTTTTTTTTTTTTTTTTT DIIS        TELAPSE        8.73 TCPU        8.47
 TTTTTTTTTTTTTTTTTTTTTTTTTTTTTT FDIK        TELAPSE       14.03 TCPU       13.76
 INSULATING STATE
 TOP OF VALENCE BANDS -    BAND    108; K    1; EIG -3.1774446E-01 AU
 BOTTOM OF VIRTUAL BANDS - BAND    109; K    1; EIG  1.5880010E-02 AU
 DIRECT ENERGY BAND GAP:   9.0784 eV
 TTTTTTTTTTTTTTTTTTTTTTTTTTTTTT PDIG        TELAPSE       14.60 TCPU       14.33
 CHARGE NORMALIZATION FACTOR   1.00000000
 TOTAL ATOMIC CHARGES:
  17.8532405  17.8532405  17.8532405  17.8532405  17.8532405  17.8532405
  17.8532405  17.8532405  18.2935190  18.2935190  18.2935190  18.2935190
 TTTTTTTTTTTTTTTTTTTTTTTTTTTTTT MOQGAD      TELAPSE       14.62 TCPU       14.35
 TTTTTTTTTTTTTTTTTTTTTTTTTTTTTT SHELLXN     TELAPSE       19.09 TCPU       18.82
 TTTTTTTTTTTTTTTTTTTTTTTTTTTTTT MONMO3      TELAPSE       19.92 TCPU       19.65
 NUMERICALLY INTEGRATED DENSITY    216.0001395981
 TTTTTTTTTTTTTTTTTTTTTTTTTTTTTT NUMDFT      TELAPSE       20.80 TCPU       20.52
 CYC   1 ETOT(AU) -6.390868846738E+03 DETOT -1.64E+00 tst  0.00E+00 PX  1.00E+00
 TTTTTTTTTTTTTTTTTTTTTTTTTTTTTT DIIS        TELAPSE       20.95 TCPU       20.68
 DIIS TEST: 0.25361E+00 AT SCF   CYCLE   1 - MIX   30 %
 TTTTTTTTTTTTTTTTTTTTTTTTTTTTTT FDIK        TELAPSE       23.04 TCPU       22.46
 INSULATING STATE
 TOP OF VALENCE BANDS -    BAND    108; K    1; EIG -2.3305035E-01 AU
 BOTTOM OF VIRTUAL BANDS - BAND    109; K    1; EIG  7.1848490E-02 AU
 DIRECT ENERGY BAND GAP:   8.2967 eV
 TTTTTTTTTTTTTTTTTTTTTTTTTTTTTT PDIG        TELAPSE       23.72 TCPU       23.14
 CHARGE NORMALIZATION FACTOR   1.00000000
 TOTAL ATOMIC CHARGES:
  17.7835016  17.7835016  17.7835016  17.7835016  17.7835016  17.7835016
  17.7835016  17.7835016  18.4329969  18.4329969  18.4329969  18.4329969
 TTTTTTTTTTTTTTTTTTTTTTTTTTTTTT MOQGAD      TELAPSE       23.74 TCPU       23.17
 TTTTTTTTTTTTTTTTTTTTTTTTTTTTTT SHELLXN     TELAPSE       29.36 TCPU       28.78
 TTTTTTTTTTTTTTTTTTTTTTTTTTTTTT MONMO3      TELAPSE       29.91 TCPU       29.33
 NUMERICALLY INTEGRATED DENSITY    216.0001554405
 TTTTTTTTTTTTTTTTTTTTTTTTTTTTTT NUMDFT      TELAPSE       30.83 TCPU       30.25
 CYC   2 ETOT(AU) -6.391024458061E+03 DETOT -1.56E-01 tst  1.24E-03 PX  1.87E-01
 TTTTTTTTTTTTTTTTTTTTTTTTTTTTTT DIIS        TELAPSE       30.95 TCPU       30.37
 DIIS TEST: 0.20226E-01 AT SCF   CYCLE   2 - DIIS ACTIVE - HISTORY:     2 CYCLES
 TTTTTTTTTTTTTTTTTTTTTTTTTTTTTT FDIK        TELAPSE       33.37 TCPU       32.30
 INSULATING STATE
 TOP OF VALENCE BANDS -    BAND    108; K    1; EIG -2.5051761E-01 AU
 BOTTOM OF VIRTUAL BANDS - BAND    109; K    1; EIG  7.7347346E-02 AU
 DIRECT ENERGY BAND GAP:   8.9217 eV
 TTTTTTTTTTTTTTTTTTTTTTTTTTTTTT PDIG        TELAPSE       33.88 TCPU       32.81
 CHARGE NORMALIZATION FACTOR   1.00000000
 TOTAL ATOMIC CHARGES:
  17.8034662  17.8034662  17.8034662  17.8034662  17.8034662  17.8034662
  17.8034662  17.8034662  18.3930675  18.3930675  18.3930675  18.3930675
 TTTTTTTTTTTTTTTTTTTTTTTTTTTTTT MOQGAD      TELAPSE       33.91 TCPU       32.84
 TTTTTTTTTTTTTTTTTTTTTTTTTTTTTT SHELLXN     TELAPSE       38.27 TCPU       37.20
 TTTTTTTTTTTTTTTTTTTTTTTTTTTTTT MONMO3      TELAPSE       38.99 TCPU       37.92
 NUMERICALLY INTEGRATED DENSITY    216.0001518743
 TTTTTTTTTTTTTTTTTTTTTTTTTTTTTT NUMDFT      TELAPSE       40.00 TCPU       38.93
 CYC   3 ETOT(AU) -6.391033785662E+03 DETOT -9.33E-03 tst  1.79E-04 PX  3.76E-02
 TTTTTTTTTTTTTTTTTTTTTTTTTTTTTT DIIS        TELAPSE       40.13 TCPU       39.06
 DIIS TEST: 0.22030E-03 AT SCF   CYCLE   3 - DIIS ACTIVE - HISTORY:     3 CYCLES
 TTTTTTTTTTTTTTTTTTTTTTTTTTTTTT FDIK        TELAPSE       42.40 TCPU       41.31
 INSULATING STATE
 TOP OF VALENCE BANDS -    BAND    108; K    1; EIG -2.5124234E-01 AU
 BOTTOM OF VIRTUAL BANDS - BAND    109; K    1; EIG  7.9041710E-02 AU
 DIRECT ENERGY BAND GAP:   8.9875 eV
 TTTTTTTTTTTTTTTTTTTTTTTTTTTTTT PDIG        TELAPSE       43.00 TCPU       41.91
 CHARGE NORMALIZATION FACTOR   1.00000000
 TOTAL ATOMIC CHARGES:
  17.8067089  17.8067089  17.8067089  17.8067089  17.8067089  17.8067089
  17.8067089  17.8067089  18.3865822  18.3865822  18.3865822  18.3865822
 TTTTTTTTTTTTTTTTTTTTTTTTTTTTTT MOQGAD      TELAPSE       43.02 TCPU       41.93
 TTTTTTTTTTTTTTTTTTTTTTTTTTTTTT SHELLXN     TELAPSE       47.62 TCPU       46.52
 TTTTTTTTTTTTTTTTTTTTTTTTTTTTTT MONMO3      TELAPSE       48.07 TCPU       46.97
 NUMERICALLY INTEGRATED DENSITY    216.0001518349
 TTTTTTTTTTTTTTTTTTTTTTTTTTTTTT NUMDFT      TELAPSE       48.97 TCPU       47.88
 CYC   4 ETOT(AU) -6.391033867953E+03 DETOT -8.23E-05 tst  1.95E-06 PX  4.82E-03
 TTTTTTTTTTTTTTTTTTTTTTTTTTTTTT DIIS        TELAPSE       49.10 TCPU       48.00
 DIIS TEST: 0.14341E-04 AT SCF   CYCLE   4 - DIIS ACTIVE - HISTORY:     4 CYCLES
 TTTTTTTTTTTTTTTTTTTTTTTTTTTTTT FDIK        TELAPSE       51.17 TCPU       50.06
 INSULATING STATE
 TOP OF VALENCE BANDS -    BAND    108; K    1; EIG -2.5097493E-01 AU
 BOTTOM OF VIRTUAL BANDS - BAND    109; K    1; EIG  7.9475596E-02 AU
 DIRECT ENERGY BAND GAP:   8.9920 eV
 TTTTTTTTTTTTTTTTTTTTTTTTTTTTTT PDIG        TELAPSE       51.63 TCPU       50.52
 CHARGE NORMALIZATION FACTOR   1.00000000
 TOTAL ATOMIC CHARGES:
  17.8070076  17.8070076  17.8070076  17.8070076  17.8070076  17.8070076
  17.8070076  17.8070076  18.3859847  18.3859847  18.3859847  18.3859847
 TTTTTTTTTTTTTTTTTTTTTTTTTTTTTT MOQGAD      TELAPSE       51.67 TCPU       50.56
 TTTTTTTTTTTTTTTTTTTTTTTTTTTTTT SHELLXN     TELAPSE       56.08 TCPU       54.96
 TTTTTTTTTTTTTTTTTTTTTTTTTTTTTT MONMO3      TELAPSE       56.63 TCPU       55.52
 NUMERICALLY INTEGRATED DENSITY    216.0001518376
 TTTTTTTTTTTTTTTTTTTTTTTTTTTTTT NUMDFT      TELAPSE       57.51 TCPU       56.40
 CYC   5 ETOT(AU) -6.391033874787E+03 DETOT -6.83E-06 tst  4.25E-08 PX  6.59E-04
 TTTTTTTTTTTTTTTTTTTTTTTTTTTTTT DIIS        TELAPSE       57.67 TCPU       56.51
 DIIS TEST: 0.15335E-05 AT SCF   CYCLE   5 - DIIS ACTIVE - HISTORY:     5 CYCLES
 TTTTTTTTTTTTTTTTTTTTTTTTTTTTTT FDIK        TELAPSE       59.97 TCPU       58.45
 INSULATING STATE
 TOP OF VALENCE BANDS -    BAND    108; K    1; EIG -2.5092374E-01 AU
 BOTTOM OF VIRTUAL BANDS - BAND    109; K    1; EIG  7.9532136E-02 AU
 DIRECT ENERGY BAND GAP:   8.9922 eV
 TTTTTTTTTTTTTTTTTTTTTTTTTTTTTT PDIG        TELAPSE       60.46 TCPU       58.94
 CHARGE NORMALIZATION FACTOR   1.00000000
 TOTAL ATOMIC CHARGES:
  17.8070545  17.8070545  17.8070545  17.8070545  17.8070545  17.8070545
  17.8070545  17.8070545  18.3858911  18.3858911  18.3858911  18.3858911
 TTTTTTTTTTTTTTTTTTTTTTTTTTTTTT MOQGAD      TELAPSE       60.48 TCPU       58.96
 TTTTTTTTTTTTTTTTTTTTTTTTTTTTTT SHELLXN     TELAPSE       64.75 TCPU       63.22
 TTTTTTTTTTTTTTTTTTTTTTTTTTTTTT MONMO3      TELAPSE       65.42 TCPU       63.90
 NUMERICALLY INTEGRATED DENSITY    216.0001518484
 TTTTTTTTTTTTTTTTTTTTTTTTTTTTTT NUMDFT      TELAPSE       66.44 TCPU       64.92
 CYC   6 ETOT(AU) -6.391033875211E+03 DETOT -4.24E-07 tst  2.41E-09 PX  8.12E-05
 TTTTTTTTTTTTTTTTTTTTTTTTTTTTTT DIIS        TELAPSE       66.58 TCPU       65.05
 DIIS TEST: 0.49479E-07 AT SCF   CYCLE   6 - DIIS ACTIVE - HISTORY:     6 CYCLES
 TTTTTTTTTTTTTTTTTTTTTTTTTTTTTT FDIK        TELAPSE       69.22 TCPU       67.36
 INSULATING STATE
 TOP OF VALENCE BANDS -    BAND    108; K    1; EIG -2.5090611E-01 AU
 BOTTOM OF VIRTUAL BANDS - BAND    109; K    1; EIG  7.9549553E-02 AU
 DIRECT ENERGY BAND GAP:   8.9922 eV
 TTTTTTTTTTTTTTTTTTTTTTTTTTTTTT PDIG        TELAPSE       69.89 TCPU       68.03
 CHARGE NORMALIZATION FACTOR   1.00000000
 TOTAL ATOMIC CHARGES:
  17.8070644  17.8070644  17.8070644  17.8070644  17.8070644  17.8070644
  17.8070644  17.8070644  18.3858712  18.3858712  18.3858712  18.3858712
 TTTTTTTTTTTTTTTTTTTTTTTTTTTTTT MOQGAD      TELAPSE       69.91 TCPU       68.05
 TTTTTTTTTTTTTTTTTTTTTTTTTTTTTT SHELLXN     TELAPSE       74.77 TCPU       72.90
 TTTTTTTTTTTTTTTTTTTTTTTTTTTTTT MONMO3      TELAPSE       75.44 TCPU       73.57
 NUMERICALLY INTEGRATED DENSITY    216.0001518491
 TTTTTTTTTTTTTTTTTTTTTTTTTTTTTT NUMDFT      TELAPSE       76.56 TCPU       74.69
 CYC   7 ETOT(AU) -6.391033875216E+03 DETOT -5.20E-09 tst  3.65E-11 PX  2.60E-05
 TTTTTTTTTTTTTTTTTTTTTTTTTTTTTT DIIS        TELAPSE       76.70 TCPU       74.83
 DIIS TEST: 0.10590E-08 AT SCF   CYCLE   7 - DIIS ACTIVE - HISTORY:     7 CYCLES
 TTTTTTTTTTTTTTTTTTTTTTTTTTTTTT FDIK        TELAPSE       79.32 TCPU       77.44
 INSULATING STATE
 TOP OF VALENCE BANDS -    BAND    108; K    1; EIG -2.5090893E-01 AU
 BOTTOM OF VIRTUAL BANDS - BAND    109; K    1; EIG  7.9547237E-02 AU
 DIRECT ENERGY BAND GAP:   8.9922 eV
 TTTTTTTTTTTTTTTTTTTTTTTTTTTTTT PDIG        TELAPSE       79.97 TCPU       78.09
 CHARGE NORMALIZATION FACTOR   1.00000000
 TOTAL ATOMIC CHARGES:
  17.8070666  17.8070666  17.8070666  17.8070666  17.8070666  17.8070666
  17.8070666  17.8070666  18.3858669  18.3858669  18.3858669  18.3858669
 TTTTTTTTTTTTTTTTTTTTTTTTTTTTTT MOQGAD      TELAPSE       79.99 TCPU       78.12
 TTTTTTTTTTTTTTTTTTTTTTTTTTTTTT SHELLXN     TELAPSE       85.72 TCPU       83.84
 +++ ENERGIES IN A.U. +++
 ::: EXT EL-POLE                                  -2.6699394913381E+03
 ::: EXT EL-SPHEROPOLE                             3.3568310353757E+01
 ::: BIELET ZONE E-E                               4.4639532181537E+03
 ::: TOTAL E-E                                     1.8275820371693E+03
 ::: TOTAL E-N + N-E                              -1.3388472957124E+04
 ::: TOTAL N-N                                    -9.3435177294487E+02
 ::: KINETIC ENERGY                                6.3832078361078E+03
 ::: PSEUDO TOTAL   ENERGY                        -6.1120348567916E+03
 ::: VIRIAL COEFFICIENT                            1.0217020978288E+00
 TTTTTTTTTTTTTTTTTTTTTTTTTTTTTT MONMO3      TELAPSE       86.38 TCPU       84.50
 NUMERICALLY INTEGRATED DENSITY    216.0001518488
 TTTTTTTTTTTTTTTTTTTTTTTTTTTTTT NUMDFT      TELAPSE       87.36 TCPU       85.49
 CYC   8 ETOT(AU) -6.391033875248E+03 DETOT -3.16E-08 tst  5.93E-12 PX  2.60E-05

 == SCF ENDED - CONVERGENCE ON ENERGY      E(AU) -6.3910338752478E+03 CYCLES   8


 ENERGY EXPRESSION=HARTREE+FOCK EXCH*0.25000+(PBE        EXCH)*0.75000+PBE        CORR


 TOTAL ENERGY(DFT)(AU)(  8) -6.3910338752478E+03 DE-3.2E-08 tester 5.9E-12
 TTTTTTTTTTTTTTTTTTTTTTTTTTTTTT EDFT        TELAPSE       87.37 TCPU       85.49

 *******************************************************************************
 *                             FORCE CALCULATION                               *
 *******************************************************************************

 TTTTTTTTTTTTTTTTTTTTTTTTTTTTTT NUMDFG      TELAPSE      100.87 TCPU       98.99
 INFORMATION **** EXCPOG **** EXCH. BIPO BUFFER LENGTH (WORDS) =     2155500
 INFORMATION **** GENPOG **** BIPO BUFFER LENGTH (WORDS) =      743200
 TTTTTTTTTTTTTTTTTTTTTTTTTTTTTT SHELXG      TELAPSE      128.44 TCPU      126.56

 CARTESIAN FORCES IN HARTREE/BOHR (ANALYTICAL)
   ATOM                     X                   Y                   Z
   1  17             7.747374751014E-03 -9.564252390571E-03 -3.320886175681E-03
   2  17            -7.747372051625E-03  9.564256342213E-03 -3.320869765211E-03
   3  17             7.747366432822E-03  9.564248045550E-03  3.320869779967E-03
   4  17            -7.747369484702E-03 -9.564252693712E-03  3.320879666155E-03
   5  17            -7.747376103064E-03  9.564264251299E-03  3.320864593599E-03
   6  17             7.747378802447E-03 -9.564260299706E-03  3.320881004059E-03
   7  17            -7.747373536128E-03 -9.564260602851E-03 -3.320874494545E-03
   8  17             7.747370484262E-03  9.564255954638E-03 -3.320864608356E-03
   9  20            -3.543335480029E-15  1.017227366408E-02  8.526843350975E-10
  10  20             3.524884489790E-10 -1.017227296749E-02  7.855675193509E-09
  11  20             3.524881698471E-10 -1.017227049876E-02 -7.855672014534E-09
  12  20             1.225667145395E-15  1.017227119531E-02 -8.526724150388E-10

 RESULTANT FORCE     4.440892098570E-16 -5.717648576820E-15  2.275957201722E-15

 ATOMIC PART

 SYMMETRY ALLOWED FORCES (ANALYTICAL) (DIRECTION, FORCE)

    1  2.1912879E-02    2 -2.7051802E-02    3 -9.3928494E-03    4  2.0344544E-02

 CELL PART

 GRADIENT WITH RESPECT TO THE CELL PARAMETER IN HARTREE/BOHR
ORDER: -D/DA1X, -D/DA1Y, -D/DA1Z
       -D/DA2X, -D/DA2Y, -D/DA2Z
       -D/DA3X, -D/DA3Y, -D/DA3Z
  0.284426974062E-05 -0.499888594983E-09  0.751138120561E-14
 -0.371462765754E-09 -0.518283648887E-06 -0.108847171465E-14
  0.628409845411E-14 -0.349874438915E-14 -0.134553229003E-06

STRESS TENSOR, IN HARTREE/BOHR^3:
ORDER: 11 12 13
       21 22 23
       31 32 33
 -0.143093055036E-07  0.251490503887E-11 -0.375731051909E-16
  0.251490163581E-11  0.350892277858E-08  0.209192602454E-16
 -0.377891895729E-16  0.736925272788E-17  0.804504045254E-09

PRESSURE FROM THE STRESS TENSOR,
IN HARTREE/BOHR^3:  0.33320E-08
PRESSURE IN GIGAPASCAL:  0.9803E-04
CONVERSION FACTOR: 1 HARTREE/BOHR^3= 29421 GIGAPASCAL
WHEN USING VALUES FOR BOHR RADIUS AND HARTREE
FROM IUPAC WEBSITE, APRIL 2009
ENTHALPY: -6.3910338678644E+03

 SYMMETRY ALLOWED FORCES (ANALYTICAL) (DIRECTION, FORCE)

    1  1.2788401E-05    2  2.9791947E-05    3 -4.2375501E-06
 TTTTTTTTTTTTTTTTTTTTTTTTTTTTTT TOTGRA_C    TELAPSE      136.81 TCPU      134.92

 VOLUME OF THE CELL: 328.366845

 DENSITY OF THE CRYSTAL =          2.2230 g/cm^3

 STRAIN MATRIX   1 :

  | 1 0 0 |
  | 0 0 0 |
  | 0 0 0 |
  

   DISPL        ENERGY              DELTA E

 -0.0100   -6.3910453950E+03   -1.1519741071E-02
 WARNING **** ELAPIEZO **** ENERGY OF DISPLACED GEOM. IS LOWER THAN ENERGY OF REF. GEOM.
  0.0000   -6.3910338752E+03    0.0000000000E+00
  0.0100   -6.3910462271E+03   -1.2351877869E-02
 WARNING **** ELAPIEZO **** ENERGY OF DISPLACED GEOM. IS LOWER THAN ENERGY OF REF. GEOM.
  ELASTIC TENSOR CONSTANTS 
 c11 =              40.99384363 GPa
 c12 =              41.52137668 GPa
 c13 =              37.20467379 GPa
 c14 =              -0.00000000 GPa
 c15 =              -0.00000000 GPa
 c16 =               0.00000035 GPa

 STRAIN MATRIX   2 :

  | 0 0 0 |
  | 0 1 0 |
  | 0 0 0 |
  

   DISPL        ENERGY              DELTA E

 -0.0100   -6.3910464924E+03   -1.2617159660E-02
 WARNING **** ELAPIEZO **** ENERGY OF DISPLACED GEOM. IS LOWER THAN ENERGY OF REF. GEOM.
  0.0000   -6.3910338752E+03    0.0000000000E+00
  0.0100   -6.3910450718E+03   -1.1196580788E-02
 WARNING **** ELAPIEZO **** ENERGY OF DISPLACED GEOM. IS LOWER THAN ENERGY OF REF. GEOM.
  ELASTIC TENSOR CONSTANTS 
 c21 =              41.36132364 GPa
 c22 =              49.95709151 GPa
 c23 =              28.44872060 GPa
 c24 =               0.00000000 GPa
 c25 =               0.00000000 GPa
 c26 =              -0.00000030 GPa

 STRAIN MATRIX   3 :

  | 0 0 0 |
  | 0 0 0 |
  | 0 0 1 |
  

   DISPL        ENERGY              DELTA E

 -0.0100   -6.3910460097E+03   -1.2134495433E-02
 WARNING **** ELAPIEZO **** ENERGY OF DISPLACED GEOM. IS LOWER THAN ENERGY OF REF. GEOM.
  0.0000   -6.3910338752E+03    0.0000000000E+00
  0.0100   -6.3910455381E+03   -1.1662891741E-02
 WARNING **** ELAPIEZO **** ENERGY OF DISPLACED GEOM. IS LOWER THAN ENERGY OF REF. GEOM.
  ELASTIC TENSOR CONSTANTS 
 c31 =              37.02324456 GPa
 c32 =              28.58567411 GPa
 c33 =              51.79310983 GPa
 c34 =              -0.00000000 GPa
 c35 =               0.00000000 GPa
 c36 =              -0.00000059 GPa

 STRAIN MATRIX   4 :

  | 0 0 0 |
  | 0 0 1 |
  | 0 1 0 |
  

   DISPL        ENERGY              DELTA E

 -0.0100   -6.3910458295E+03   -1.1953960870E-02
 WARNING **** ELAPIEZO **** ENERGY OF DISPLACED GEOM. IS LOWER THAN ENERGY OF REF. GEOM.
  0.0000   -6.3910338755E+03    0.0000000000E+00
  0.0100   -6.3910458295E+03   -1.1953994811E-02
 WARNING **** ELAPIEZO **** ENERGY OF DISPLACED GEOM. IS LOWER THAN ENERGY OF REF. GEOM.
  ELASTIC TENSOR CONSTANTS 
 c41 =               0.00166242 GPa
 c42 =              -0.00732958 GPa
 c43 =               0.00884282 GPa
 c44 =               9.51453390 GPa
 c45 =               0.00000040 GPa
 c46 =               0.00000000 GPa

 STRAIN MATRIX   5 :

  | 0 0 1 |
  | 0 0 0 |
  | 1 0 0 |
  

   DISPL        ENERGY              DELTA E

 -0.0100   -6.3910457725E+03   -1.1897100181E-02
 WARNING **** ELAPIEZO **** ENERGY OF DISPLACED GEOM. IS LOWER THAN ENERGY OF REF. GEOM.
  0.0000   -6.3910338754E+03    0.0000000000E+00
  0.0100   -6.3910457721E+03   -1.1896735193E-02
 WARNING **** ELAPIEZO **** ENERGY OF DISPLACED GEOM. IS LOWER THAN ENERGY OF REF. GEOM.
  ELASTIC TENSOR CONSTANTS 
 c51 =              -0.02690714 GPa
 c52 =              -0.03173063 GPa
 c53 =              -0.02620866 GPa
 c54 =               0.00000034 GPa
 c55 =              13.24417976 GPa
 c56 =              -0.00000000 GPa

 STRAIN MATRIX   6 :

  | 0 1 0 |
  | 1 0 0 |
  | 0 0 0 |
  

   DISPL        ENERGY              DELTA E

 -0.0100   -6.3910457780E+03   -1.1902438315E-02
 WARNING **** ELAPIEZO **** ENERGY OF DISPLACED GEOM. IS LOWER THAN ENERGY OF REF. GEOM.
  0.0000   -6.3910338755E+03    0.0000000000E+00
  0.0100   -6.3910457789E+03   -1.1903425851E-02
 WARNING **** ELAPIEZO **** ENERGY OF DISPLACED GEOM. IS LOWER THAN ENERGY OF REF. GEOM.
  ELASTIC TENSOR CONSTANTS 
 c61 =              -0.06044928 GPa
 c62 =               0.01430073 GPa
 c63 =               0.06265151 GPa
 c64 =               0.00000000 GPa
 c65 =               0.00000000 GPa
 c66 =              12.92001670 GPa

 ************************************************************************
 ************************************************************************
                           FINAL RESULTS START
 ************************************************************************
 ************************************************************************

 THE CALCULATION HAS BEEN PERFORMED WITH   3 POINTS AND
 A STEP OF     0.01000
 THIS PERMITS TO PERFORM A FITTING UP TO SECOND   ORDER

 DATA FOR MAXIMUM NUMBER OF POINTS AND ORDER OF FIT

 SYMMETRIZED ELASTIC CONSTANTS FOR ORTHORHOMBIC CASE, IN GPa

 |    40.994   41.441   37.114    0.000    0.000    0.000 |
 |             49.957   28.517    0.000    0.000    0.000 |
 |                      51.793    0.000    0.000    0.000 |
 |                                9.515    0.000    0.000 |
 |                                        13.244    0.000 |
 |                                                 12.920 |


 ELASTIC MODULI (COMPLIANCE TENSOR), IN TPa^-1

 |  659.2238-404.2543-249.8055   0.0000   0.0000   0.0000 |
 |           277.0923 137.1144   0.0000   0.0000   0.0000 |
 |                    122.8185   0.0000   0.0000   0.0000 |
 |                             105.1024   0.0000   0.0000 |
 |                                       75.5049   0.0000 |
 |                                                77.3993 |


 BULK MODULUS K, SHEAR MODULUS G, YOUNG MODULUS E AND
 POISSON RATIO v (ALL IN GPa) ACCORDING TO VOIGT-REUSS-HILL

    K_V     G_V     K_R     G_R     K_H     G_H    E_H      v_H

 -122.44-1070.00   39.61    2.12   39.63    5.82   16.64   0.430

 SEISMIC VELOCITIES BY CHRISTOFFEL EQUATION (km/s)

       WAVE VECTOR                Vp        Vs1       Vs2

 [ 0.000  0.000  1.000]          4.827     2.441     2.069
 [ 0.000  1.000  0.000]          4.741     2.411     2.069
 [ 1.000  0.000  0.000]          4.294     2.441     2.411
 [ 1.000  1.000  0.000]          5.040     2.262     0.931
 [ 1.000  0.000  1.000]          4.980     2.246     1.422
 [ 0.000  1.000  1.000]          4.705     2.426     2.242
 [ 1.000  1.000  1.000]          4.999     2.317     1.323

 ************************************************************************
 ************************************************************************
                           FINAL RESULTS END
 ************************************************************************
 ************************************************************************

       
 BULK MODULUS (GPa) 
       
 K =      39.61
       
 TTTTTTTTTTTTTTTTTTTTTTTTTTTTTT END         TELAPSE    32940.89 TCPU    32707.09
 EEEEEEEEEE TERMINATION  DATE 18 06 2019 TIME 12:34:56.5
NODE    0 CPU TIME =     32707.088
NODE    1 CPU TIME =     32734.760
NODE    2 CPU TIME =     32733.592
NODE    3 CPU TIME =     32744.212
    TOTAL CPU TIME =    130919.652

