TEST27 - CORUNDUM
CRYSTAL
0 0 0
167
4.7602  12.9933
2
8     0.30624   0.   0.25
13    0.        0.   0.35216
OPTGEOM
ENDOPT
END
8  2
1 0 3 2. 0.
1 1 3 6. 0.
13 3
1 0 3 2. 0.
1 1 3 8. 0.
1 1 3 3. 0.
99 0
END
SHRINK
3  3
END
Thu Nov 20 16:41:23 CET 2014
 PROCESS            2  OF            8  WORKING
 PROCESS            0  OF            8  WORKING
 PROCESS            3  OF            8  WORKING
 PROCESS            4  OF            8  WORKING
 PROCESS            5  OF            8  WORKING
 PROCESS            6  OF            8  WORKING

         
 *******************************************************************************
 *                                                                             *
 *                               CRYSTAL14                                     *
 *                      public : 1.0.2 - Feb 23rd, 2013                        *
 *                       HTTP://WWW.CRYSTAL.UNITO.IT                           *
 *                                                                             *
 *                              MAIN AUTHORS                                   *
 *                                                                             *
 *  R. DOVESI(1,11), V.R. SAUNDERS(2), C. ROETTI(1,11), R. ORLANDO(1,11),      *
 *  C.M. ZICOVICH-WILSON(1,3), F. PASCALE(4), B. CIVALLERI(1,11),              *
 *  K. DOLL(5), N.M. HARRISON(2,6), I. J. BUSH(7), Ph. D'ARCO(8),              *
 *  M. LLUNELL(9), M. CAUSA'(10), Y. NOEL(8)                                   *
 *                                                                             *
 *        CONTRIBUTIONS TO THE CURRENT RELEASE HAVE BEEN GIVEN BY              *
 *                                                                             *
 *  L. MASCHIO(1,11), S. CASASSA(1,11), A. ERBA(1,11), M. FERRABONE(1,11),     *
 *  M. DE LA PIERRE(1,11), M. FERRERO(1,11), V. LACIVITA(1,11),                *
 *  J. BAIMA(1,11), E. ALBANESE(1,11), M.F. PEINTINGER(12), R. BAST(13),       *
 *  M. RERAT(14), B. KIRTMAN(15), R. DEMICHELIS(1,16)                          *
 *                                                                             *
 * (1) THEORETICAL CHEMISTRY GROUP - UNIVERSITA' DI TORINO - TORINO (ITALY)    *
 *     http://www.crystal.unito.it                                             *
 * (2) COMPUTATIONAL SCIENCE & ENGINEERING DEPARTMENT - STFC DARESBURY (UK)    *
 *     http://www.stfc.ac.uk/CSE/randd/cmg/CRYSTAL/25806.aspx                  *
 * (3) UNIVERSIDAD AUTONOMA DEL ESTADO DE MORELOS - CUERNAVACA (MEXICO)        *
 * (4) UNIVERSITE' DE LORRAINE - NANCY (FRANCE)                                *
 * (5) UNIVERSITAET ULM - ULM (GERMANY); (6) IMPERIAL COLLEGE - LONDON (UK)    *
 * (7) NAG - OXFORD (UK); (8) UPMC - SORBONNE UNIVERSITES - PARIS (FRANCE)     *
 * (9) UNIVERSIDAD DE BARCELONA - BARCELONA (SPAIN)                            *
 *(10) UNIVERSITA' DI NAPOLI "FEDERICO II" - NAPOLI (ITALY)                    *
 *(11) NIS - NANOSTRUCTURED INTERFACES AND SURFACES - TORINO (ITALY)           *
 *(12) MPI FUER CHEMISCHE ENERGIEKONVERSION - MUELHEIM AN DER RUHR (GERMANY)   *
 *(13) UNIVERSITY OF STOCKHOLM - STOCKHOLM (SWEDEN)                            *
 *(14) UNIVERSITE' DE PAU ET DES PAYS DE L'ADOUR - PAU (FRANCE)                *
 *(15) UNIVERSITY OF CALIFORNIA SANTA BARBARA - SANTA BARBARA (USA)            *
 *(16) CURTIN UNIVERSITY - PERTH (AUSTRALIA)                                   *
 *                                                                             *
 ********************************************************************************
 EEEEEEEEEE STARTING  DATE 20 11 2014 TIME 16:41:24.7
 TEST27 - CORUNDUM                                                               

 CRYSTAL CALCULATION
 (INPUT ACCORDING TO THE INTERNATIONAL TABLES FOR X-RAY CRYSTALLOGRAPHY)
 CRYSTAL FAMILY                       :  HEXAGONAL   
 CRYSTAL CLASS  (GROTH - 1921)        :  DITRIGONAL SCALENOHEDRAL             

 SPACE GROUP (CENTROSYMMETRIC)        :  R -3 C          

 LATTICE PARAMETERS  (ANGSTROMS AND DEGREES) - CONVENTIONAL CELL
        A           B           C        ALPHA        BETA       GAMMA
     4.76020     4.76020    12.99330    90.00000    90.00000   120.00000


 NUMBER OF IRREDUCIBLE ATOMS IN THE CONVENTIONAL CELL:    2

 INPUT COORDINATES

 ATOM AT. N.              COORDINATES
   1   8     3.062400000000E-01  0.000000000000E+00  2.500000000000E-01
   2  13     0.000000000000E+00  0.000000000000E+00  3.521600000000E-01

 *******************************************************************************

 << INFORMATION >>: FROM NOW ON, ALL COORDINATES REFER TO THE PRIMITIVE CELL

 *******************************************************************************

 LATTICE PARAMETERS  (ANGSTROMS AND DEGREES) - PRIMITIVE CELL
       A          B          C         ALPHA     BETA     GAMMA        VOLUME
    5.12948    5.12948    5.12948    55.29155  55.29155  55.29155     84.992234

 COORDINATES OF THE EQUIVALENT ATOMS (FRACTIONAL UNITS)

 N. ATOM EQUIV AT. N.          X                  Y                  Z

   1   1   1    8 O    -4.43760000000E-01 -5.62400000000E-02  2.50000000000E-01
   2   1   2    8 O     2.50000000000E-01 -4.43760000000E-01 -5.62400000000E-02
   3   1   3    8 O    -5.62400000000E-02  2.50000000000E-01 -4.43760000000E-01
   4   1   4    8 O     4.43760000000E-01  5.62400000000E-02 -2.50000000000E-01
   5   1   5    8 O    -2.50000000000E-01  4.43760000000E-01  5.62400000000E-02
   6   1   6    8 O     5.62400000000E-02 -2.50000000000E-01  4.43760000000E-01

   7   2   1   13 AL    3.52160000000E-01  3.52160000000E-01  3.52160000000E-01
   8   2   2   13 AL    1.47840000000E-01  1.47840000000E-01  1.47840000000E-01
   9   2   3   13 AL   -3.52160000000E-01 -3.52160000000E-01 -3.52160000000E-01
  10   2   4   13 AL   -1.47840000000E-01 -1.47840000000E-01 -1.47840000000E-01

 NUMBER OF SYMMETRY OPERATORS         :   12
 *******************************************************************************
 * GEOMETRY EDITING - INPUT COORDINATES ARE GIVEN IN ANGSTROM         
 *******************************************************************************

 GEOMETRY NOW FULLY CONSISTENT WITH THE GROUP
 PROCESS            1  OF            8  WORKING
 PROCESS            7  OF            8  WORKING
 INFORMATION **** NEW DEFAULT **** FINALRUN 4 FOR GEOMETRY OPTIMIZATIONS
 INFORMATION **** NEW DEFAULT **** OPTGEOM OPTIMIZES BOTH ATOMIC COORDINATES AND CELL PARAMETERS
 INFORMATION **** NEW DEFAULT **** TOL. ON ENERGY TO REDEFINE REF. GEOMETRY: 10**-3

 IMPORTANT INFORMATION:
 THE COORDINATE SYSTEM ADOPTED IN THE OPTIMIZATION IS NOT IN
 GENERAL HOMOGENEOUS UNITS. FOR THIS REASON THE GRADIENT AND 
 HESSIAN MATRIX IN TERMS OF THIS SYSTEM ARE GIVEN WITHOUT
 UNITS. FOR MORE DETAILS SEE THE MANUAL.

 *******************************************************************************
 COMBINED CELL/ATOM OPTIMIZATION CONTROL

 INITIAL TRUST RADIUS         0.50000 MAXIMUM TRUST RADIUS               4.00000
 MAXIMUM GRADIENT COMPONENT   0.00045 MAXIMUM DISPLACEMENT COMPONENT     0.00180
 R.M.S. OF GRADIENT COMPONENT 0.00030 R.M.S. OF DISPLACEMENT COMPONENTS  0.00120
 THRESHOLD ON ENERGY CHANGE 0.100E-06 EXTRAPOLATING POLYNOMIAL ORDER           2
 MAXIMUM ALLOWED NUMBER OF STEPS  100 SORTING OF ENERGY POINTS:               NO
 ANALYTICAL  GRADIENT                 HESSIAN UPDATING                      BFGS
 STEP SIZE NUMERICAL GRADIENT 0.00100
 INITIAL HESSIAN MATRIX: SCHLEGEL MODEL 2
 *******************************************************************************


 GCALCO - MAX INDICES DIRECT LATTICE VECTOR    14    14    14
 NO.OF VECTORS CREATED 6999 STARS  522 RMAX    98.86931 BOHR

 GEOMETRY FOR WAVE FUNCTION - DIMENSIONALITY OF THE SYSTEM    3
 (NON PERIODIC DIRECTION: LATTICE PARAMETER FORMALLY SET TO 500)
 *******************************************************************************
 LATTICE PARAMETERS (ANGSTROMS AND DEGREES) - BOHR = 0.5291772083 ANGSTROM
 PRIMITIVE CELL - CENTRING CODE 7/0 VOLUME=    84.992234 - DENSITY  3.984 g/cm^3
         A              B              C           ALPHA      BETA       GAMMA 
     5.12948294     5.12948294     5.12948294    55.291548  55.291548  55.291548
 *******************************************************************************
 ATOMS IN THE ASYMMETRIC UNIT    2 - ATOMS IN THE UNIT CELL:   10
     ATOM              X/A                 Y/B                 Z/C    
 *******************************************************************************
   1 T   8 O    -4.437600000000E-01 -5.624000000000E-02  2.500000000000E-01
   2 F   8 O     2.500000000000E-01 -4.437600000000E-01 -5.624000000000E-02
   3 F   8 O    -5.624000000000E-02  2.500000000000E-01 -4.437600000000E-01
   4 F   8 O     4.437600000000E-01  5.624000000000E-02 -2.500000000000E-01
   5 F   8 O    -2.500000000000E-01  4.437600000000E-01  5.624000000000E-02
   6 F   8 O     5.624000000000E-02 -2.500000000000E-01  4.437600000000E-01
   7 T  13 AL    3.521600000000E-01  3.521600000000E-01  3.521600000000E-01
   8 F  13 AL    1.478400000000E-01  1.478400000000E-01  1.478400000000E-01
   9 F  13 AL   -3.521600000000E-01 -3.521600000000E-01 -3.521600000000E-01
  10 F  13 AL   -1.478400000000E-01 -1.478400000000E-01 -1.478400000000E-01

 TRANSFORMATION MATRIX PRIMITIVE-CRYSTALLOGRAPHIC CELL
  1.0000  0.0000  1.0000 -1.0000  1.0000  1.0000  0.0000 -1.0000  1.0000

 *******************************************************************************
 CRYSTALLOGRAPHIC CELL (VOLUME=        254.97670093)
         A              B              C           ALPHA      BETA       GAMMA 
     4.76020000     4.76020000    12.99330000    90.000000  90.000000 120.000000

 COORDINATES IN THE CRYSTALLOGRAPHIC CELL
     ATOM              X/A                 Y/B                 Z/C    
 *******************************************************************************
   1 T   8 O    -3.604266666667E-01 -3.333333333333E-01 -8.333333333333E-02
   2 F   8 O     3.333333333333E-01 -2.709333333333E-02 -8.333333333333E-02
   3 F   8 O     2.709333333333E-02  3.604266666667E-01 -8.333333333333E-02
   4 F   8 O     3.604266666667E-01  3.333333333333E-01  8.333333333333E-02
   5 F   8 O    -3.333333333333E-01  2.709333333333E-02  8.333333333333E-02
   6 F   8 O    -2.709333333333E-02 -3.604266666667E-01  8.333333333333E-02
   7 T  13 AL    3.333333333333E-01 -3.333333333333E-01  1.882666666667E-02
   8 F  13 AL    0.000000000000E+00  2.468403515657E-17  1.478400000000E-01
   9 F  13 AL   -3.333333333333E-01  3.333333333333E-01 -1.882666666667E-02
  10 F  13 AL    0.000000000000E+00  0.000000000000E+00 -1.478400000000E-01

 T = ATOM BELONGING TO THE ASYMMETRIC UNIT

 ****   12 SYMMOPS - TRANSLATORS IN FRACTIONAL UNITS
 **** MATRICES AND TRANSLATORS IN THE CRYSTALLOGRAPHIC REFERENCE FRAME
   V INV                    ROTATION MATRICES                   TRANSLATORS
   1   1  1.00  0.00  0.00  0.00  1.00  0.00  0.00  0.00  1.00  0.00  0.00  0.00
   2   3  0.00  0.00  1.00  1.00  0.00  0.00  0.00  1.00  0.00  0.00  0.00  0.00
   3   2  0.00  1.00  0.00  0.00  0.00  1.00  1.00  0.00  0.00  0.00  0.00  0.00
   4   4  0.00 -1.00  0.00 -1.00  0.00  0.00  0.00  0.00 -1.00  0.50  0.50  0.50
   5   5 -1.00  0.00  0.00  0.00  0.00 -1.00  0.00 -1.00  0.00  0.50  0.50  0.50
   6   6  0.00  0.00 -1.00  0.00 -1.00  0.00 -1.00  0.00  0.00  0.50  0.50  0.50
   7   7 -1.00  0.00  0.00  0.00 -1.00  0.00  0.00  0.00 -1.00  0.00  0.00  0.00
   8   9  0.00  0.00 -1.00 -1.00  0.00  0.00  0.00 -1.00  0.00  0.00  0.00  0.00
   9   8  0.00 -1.00  0.00  0.00  0.00 -1.00 -1.00  0.00  0.00  0.00  0.00  0.00
  10  10  0.00  1.00  0.00  1.00  0.00  0.00  0.00  0.00  1.00  0.50  0.50  0.50
  11  11  1.00  0.00  0.00  0.00  0.00  1.00  0.00  1.00  0.00  0.50  0.50  0.50
  12  12  0.00  0.00  1.00  0.00  1.00  0.00  1.00  0.00  0.00  0.50  0.50  0.50

 DIRECT LATTICE VECTORS CARTESIAN COMPONENTS (ANGSTROM)
          X                    Y                    Z
   0.274830275140E+01   0.000000000000E+00   0.433110000000E+01
  -0.137415137570E+01   0.238010000000E+01   0.433110000000E+01
  -0.137415137570E+01  -0.238010000000E+01   0.433110000000E+01


 CARTESIAN COORDINATES - PRIMITIVE CELL
 *******************************************************************************
 *      ATOM          X(ANGSTROM)         Y(ANGSTROM)         Z(ANGSTROM)
 *******************************************************************************
    1     8 O    -1.485842399515E+00 -7.288818240000E-01 -1.082775000000E+00
    2     8 O     1.374151375698E+00 -9.223363520000E-01 -1.082775000000E+00
    3     8 O     1.116910238168E-01  1.651218176000E+00 -1.082775000000E+00
    4     8 O     1.485842399515E+00  7.288818240000E-01  1.082775000000E+00
    5     8 O    -1.374151375698E+00  9.223363520000E-01  1.082775000000E+00
    6     8 O    -1.116910238168E-01 -1.651218176000E+00  1.082775000000E+00
    7    13 AL   -2.748302751396E+00  0.000000000000E+00  2.446205280000E-01
    8    13 AL    0.000000000000E+00  1.175009441523E-16  1.920929472000E+00
    9    13 AL   -1.374151375698E+00 -2.380100000000E+00 -2.446205280000E-01
   10    13 AL    0.000000000000E+00  0.000000000000E+00 -1.920929472000E+00

 *******************************************************************************
 LOCAL ATOMIC FUNCTIONS BASIS SET
 *******************************************************************************
   ATOM   X(AU)   Y(AU)   Z(AU)  N. TYPE  EXPONENT  S COEF   P COEF   D/F/G COEF
 *******************************************************************************
   1 O   -2.808  -1.377  -2.046
                                  1 S  
                                         1.307E+02 1.543E-01 0.000E+00 0.000E+00
                                         2.381E+01 5.353E-01 0.000E+00 0.000E+00
                                         6.444E+00 4.446E-01 0.000E+00 0.000E+00
                             2-   5 SP 
                                         5.033E+00-9.997E-02 1.559E-01 0.000E+00
                                         1.170E+00 3.995E-01 6.077E-01 0.000E+00
                                         3.804E-01 7.001E-01 3.920E-01 0.000E+00
   2 O    2.597  -1.743  -2.046
   3 O    0.211   3.120  -2.046
   4 O    2.808   1.377   2.046
   5 O   -2.597   1.743   2.046
   6 O   -0.211  -3.120   2.046
   7 AL  -5.194   0.000   0.462
                                 31 S  
                                         3.514E+02 1.543E-01 0.000E+00 0.000E+00
                                         6.401E+01 5.353E-01 0.000E+00 0.000E+00
                                         1.732E+01 4.446E-01 0.000E+00 0.000E+00
                            32-  35 SP 
                                         1.890E+01-9.997E-02 1.559E-01 0.000E+00
                                         4.392E+00 3.995E-01 6.077E-01 0.000E+00
                                         1.428E+00 7.001E-01 3.920E-01 0.000E+00
                            36-  39 SP 
                                         1.395E+00-2.196E-01 1.059E-02 0.000E+00
                                         3.893E-01 2.256E-01 5.952E-01 0.000E+00
                                         1.524E-01 9.004E-01 4.620E-01 0.000E+00
   8 AL   0.000   0.000   3.630
   9 AL  -2.597  -4.498  -0.462
  10 AL   0.000   0.000  -3.630
 INFORMATION **** SET_MPP **** PCRYSTAL CALCULATION
 INFORMATION **** READM2 **** NEW DEFAULT: FOCK/KS MATRIX MIXING SET TO 30 %
 INFORMATION **** READM2 **** NEW DEFAULT: FULL DIRECT SCF MODE
 INFORMATION **** READM2 **** NEW DEFAULT: COULOMB BIPOLAR BUFFER SET TO 32 Mb
 INFORMATION **** READM2 **** NEW DEFAULT: EXCHANGE BIPOLAR BUFFER SET TO 32 Mb
 *******************************************************************************
 N. OF ATOMS PER CELL        10  COULOMB OVERLAP TOL         (T1) 10**   -6
 NUMBER OF SHELLS            24  COULOMB PENETRATION TOL     (T2) 10**   -6
 NUMBER OF AO                66  EXCHANGE OVERLAP TOL        (T3) 10**   -6
 N. OF ELECTRONS PER CELL   100  EXCHANGE PSEUDO OVP (F(G))  (T4) 10**   -6
 CORE ELECTRONS PER CELL     52  EXCHANGE PSEUDO OVP (P(G))  (T5) 10**  -12
 N. OF SYMMETRY OPERATORS    12  POLE ORDER IN MONO ZONE                  4
 *******************************************************************************
 TYPE OF CALCULATION :  RESTRICTED CLOSED SHELL
 HARTREE-FOCK HAMILTONIAN

 CAPPA:IS1  3;IS2  3;IS3  3; K PTS MONK NET   6; SYMMOPS:K SPACE  12;G SPACE  12

 *******************************************************************************
 MAX NUMBER OF SCF CYCLES      50  CONVERGENCE ON DELTAP        10**-16
 WEIGHT OF F(I) IN F(I+1)      30% CONVERGENCE ON ENERGY        10**- 7
 SHRINK. FACT.(MONKH.)    3  3  3  NUMBER OF K POINTS IN THE IBZ      6
 SHRINKING FACTOR(GILAT NET)    3  NUMBER OF K POINTS(GILAT NET)      6
 *******************************************************************************
 *** K POINTS COORDINATES (OBLIQUE COORDINATES IN UNITS OF IS =  3)
   1-R(  0  0  0)   2-C(  1  0  0)   3-C(  1  1  0)   4-C(  2  1  0)
   5-C(  1  1  1)   6-C(  2  1  1)

 DIRECT LATTICE VECTORS COMPON. (A.U.)     RECIP. LATTICE VECTORS COMPON. (A.U.) 
        X            Y            Z              X            Y            Z
    5.1935395    0.0000000    8.1845929      0.8065386    0.0000000    0.2558948
   -2.5967698    4.4977372    8.1845929     -0.4032693    0.6984829    0.2558948
   -2.5967698   -4.4977372    8.1845929     -0.4032693   -0.6984829    0.2558948

 DISK SPACE FOR EIGENVECTORS (FTN 10)       47916 REALS

 SYMMETRY ADAPTION OF THE BLOCH FUNCTIONS ENABLED
 TTTTTTTTTTTTTTTTTTTTTTTTTTTTTT gordsh1     TELAPSE        1.03 TCPU        0.01

 MATRIX SIZE: P(G)   62554, F(G)   11262, P(G) IRR    3614, F(G) IRR    1302
 MAX G-VECTOR INDEX FOR 1- AND 2-ELECTRON INTEGRALS 111

 TTTTTTTTTTTTTTTTTTTTTTTTTTTTTT INPUT       TELAPSE        1.03 TCPU        0.02

 NEIGHBORS OF THE NON-EQUIVALENT ATOMS

 N = NUMBER OF NEIGHBORS AT DISTANCE R
    ATOM  N     R/ANG      R/AU   NEIGHBORS (ATOM LABELS AND CELL INDICES)
   1 O    2     1.8551     3.5057    9 AL   0 0 0   10 AL   0 0 0
   1 O    2     1.9716     3.7257    7 AL   0 0 0    8 AL  -1 0 0
   1 O    2     2.5249     4.7714    2 O   -1 1 0    3 O   -1 0 1
   1 O    2     2.6200     4.9511    4 O   -1 0 1    4 O   -1 0 0
   1 O    4     2.7255     5.1505    5 O    0 0 0    5 O    0-1 0    6 O    0 0 0
                                     6 O   -1 0 0
   1 O    4     2.8665     5.4170    2 O    0 0 0    2 O   -1 0 1    3 O    0 0 0
                                     3 O    0-1 1

   7 AL   3     1.8551     3.5057    4 O   -1 0 1    5 O    0 0 0    6 O   -1 1 0
   7 AL   3     1.9716     3.7257    1 O    0 0 0    2 O   -1 1 0    3 O   -1 0 1
   7 AL   1     2.6548     5.0168    8 AL  -1 0 0
   7 AL   3     2.7915     5.2752    9 AL   0 0 0    9 AL  -1 1 0    9 AL   0 1-1
   7 AL   3     3.2192     6.0834    8 AL   0 0 0    8 AL  -1 0 1    8 AL  -1 1 0
   7 AL   3     3.2219     6.0885    4 O   -1 1 0    5 O   -1 0 1    6 O    0 0 0


 SYMMETRY ALLOWED ELASTIC DISTORTION 1
  0.5773503  0.0000000  0.0000000
  0.0000000  0.5773503  0.0000000
  0.0000000  0.0000000  0.5773503

 SYMMETRY ALLOWED ELASTIC DISTORTION 2
  0.4082483  0.0000000  0.0000000
  0.0000000  0.4082483  0.0000000
  0.0000000  0.0000000 -0.8164966

 SYMMETRY ALLOWED INTERNAL DEGREE(S) OF FREEDOM:   2
 TTTTTTTTTTTTTTTTTTTTTTTTTTTTTT SYMM        TELAPSE        1.04 TCPU        0.02
 TTTTTTTTTTTTTTTTTTTTTTTTTTTTTT INT_SCREEN  TELAPSE        1.04 TCPU        0.02
 *******************************************************************************
 COORDINATE AND CELL OPTIMIZATION - POINT    1
 INFORMATION **** EXCBUF **** EXCH. BIPO BUFFER: WORDS USED =      180126
 TTTTTTTTTTTTTTTTTTTTTTTTTTTTTT INT_CALC    TELAPSE        1.09 TCPU        0.07

 *******************************************************************************
 TEST27 - CORUNDUM                                                               
 CRYSTAL - SCF - TYPE OF CALCULATION :  RESTRICTED CLOSED SHELL
 *******************************************************************************

 CAPPA:IS1  3;IS2  3;IS3  3; K PTS MONK NET   6; SYMMOPS:K SPACE  12;G SPACE  12

 TTTTTTTTTTTTTTTTTTTTTTTTTTTTTT SDIK        TELAPSE        1.09 TCPU        0.07

 AAAAAAAAAAAAAAAAAAAAAAAAAAAAAAAAAAAAAAAAAAAAAAAAAAAAAAAAAAAAAAAAAAAAAAAAAAAAAAA
         ATOMIC WAVEFUNCTION(S)


 NUCLEAR CHARGE  8.0  SYMMETRY SPECIES            S    P
 N. ELECTRONS    8.0  NUMBER OF PRIMITIVE GTOS    6    3
                      NUMBER OF CONTRACTED GTOS   2    1
                      NUMBER OF CLOSED SHELLS     2    0
                      OPEN SHELL OCCUPATION       0    4

  ZNUC SCFIT  TOTAL HF ENERGY   KINETIC ENERGY   VIRIAL THEOREM ACCURACY
   8.0   1   -7.380415026E+01  7.344496710E+01 -2.004890507E+00  0.0E+00

 NUCLEAR CHARGE 13.0  SYMMETRY SPECIES            S    P
 N. ELECTRONS   13.0  NUMBER OF PRIMITIVE GTOS    9    6
                      NUMBER OF CONTRACTED GTOS   3    2
                      NUMBER OF CLOSED SHELLS     3    1
                      OPEN SHELL OCCUPATION       0    1

  ZNUC SCFIT  TOTAL HF ENERGY   KINETIC ENERGY   VIRIAL THEOREM ACCURACY
  13.0   3   -2.388583402E+02  2.366235607E+02 -2.009444451E+00  1.7E-06

 AAAAAAAAAAAAAAAAAAAAAAAAAAAAAAAAAAAAAAAAAAAAAAAAAAAAAAAAAAAAAAAAAAAAAAAAAAAAAAA

 CHARGE NORMALIZATION FACTOR   1.00000000
 TOTAL ATOMIC CHARGES:
   8.0000000   8.0000000   8.0000000   8.0000000   8.0000000   8.0000000
  13.0000000  13.0000000  13.0000000  13.0000000
 TTTTTTTTTTTTTTTTTTTTTTTTTTTTTT MOQGAD      TELAPSE        1.10 TCPU        0.08
 TTTTTTTTTTTTTTTTTTTTTTTTTTTTTT SHELLX2     TELAPSE        1.54 TCPU        0.52
 TTTTTTTTTTTTTTTTTTTTTTTTTTTTTT MONMO3      TELAPSE        1.93 TCPU        0.91
 CYC   0 ETOT(AU) -1.398376564924E+03 DETOT -1.40E+03 tst  0.00E+00 PX  1.00E+00
 TTTTTTTTTTTTTTTTTTTTTTTTTTTTTT FDIK        TELAPSE        1.93 TCPU        0.91
 INSULATING STATE
 TOP OF VALENCE BANDS -    BAND     50; K    1; EIG -2.0782091E-01 AU
 BOTTOM OF VIRTUAL BANDS - BAND     51; K    1; EIG  1.2390255E-01 AU
 TTTTTTTTTTTTTTTTTTTTTTTTTTTTTT PDIG        TELAPSE        1.94 TCPU        0.92
 CHARGE NORMALIZATION FACTOR   1.00000000
 TOTAL ATOMIC CHARGES:
   8.9638150   8.9638150   8.9638150   8.9638150   8.9638150   8.9638150
  11.5542775  11.5542775  11.5542775  11.5542775
 TTTTTTTTTTTTTTTTTTTTTTTTTTTTTT MOQGAD      TELAPSE        1.94 TCPU        0.92
 TTTTTTTTTTTTTTTTTTTTTTTTTTTTTT SHELLX2     TELAPSE        2.39 TCPU        1.37
 TTTTTTTTTTTTTTTTTTTTTTTTTTTTTT MONMO3      TELAPSE        2.78 TCPU        1.76
 CYC   1 ETOT(AU) -1.400215143517E+03 DETOT -1.84E+00 tst  0.00E+00 PX  1.00E+00
 TTTTTTTTTTTTTTTTTTTTTTTTTTTTTT FDIK        TELAPSE        2.79 TCPU        1.76
 INSULATING STATE
 TOP OF VALENCE BANDS -    BAND     50; K    1; EIG -1.3229596E-01 AU
 BOTTOM OF VIRTUAL BANDS - BAND     51; K    1; EIG  3.2579649E-01 AU
 TTTTTTTTTTTTTTTTTTTTTTTTTTTTTT PDIG        TELAPSE        2.79 TCPU        1.77
 CHARGE NORMALIZATION FACTOR   1.00000000
 TOTAL ATOMIC CHARGES:
   8.7609689   8.7609689   8.7609689   8.7609689   8.7609689   8.7609689
  11.8585466  11.8585466  11.8585466  11.8585466
 TTTTTTTTTTTTTTTTTTTTTTTTTTTTTT MOQGAD      TELAPSE        2.80 TCPU        1.78
 TTTTTTTTTTTTTTTTTTTTTTTTTTTTTT SHELLX2     TELAPSE        3.25 TCPU        2.22
 TTTTTTTTTTTTTTTTTTTTTTTTTTTTTT MONMO3      TELAPSE        3.64 TCPU        2.62
 CYC   2 ETOT(AU) -1.400381422204E+03 DETOT -1.66E-01 tst  5.31E-03 PX  8.29E-02
 TTTTTTTTTTTTTTTTTTTTTTTTTTTTTT FDIK        TELAPSE        3.64 TCPU        2.62
 INSULATING STATE
 TOP OF VALENCE BANDS -    BAND     50; K    1; EIG -1.5096418E-01 AU
 BOTTOM OF VIRTUAL BANDS - BAND     51; K    1; EIG  3.7076220E-01 AU
 TTTTTTTTTTTTTTTTTTTTTTTTTTTTTT PDIG        TELAPSE        3.65 TCPU        2.62
 CHARGE NORMALIZATION FACTOR   1.00000000
 TOTAL ATOMIC CHARGES:
   8.7329699   8.7329699   8.7329699   8.7329699   8.7329699   8.7329699
  11.9005452  11.9005452  11.9005452  11.9005452
 TTTTTTTTTTTTTTTTTTTTTTTTTTTTTT MOQGAD      TELAPSE        3.65 TCPU        2.64
 TTTTTTTTTTTTTTTTTTTTTTTTTTTTTT SHELLX2     TELAPSE        4.10 TCPU        3.08
 TTTTTTTTTTTTTTTTTTTTTTTTTTTTTT MONMO3      TELAPSE        4.49 TCPU        3.47
 CYC   3 ETOT(AU) -1.400392170649E+03 DETOT -1.07E-02 tst  4.85E-04 PX  1.92E-02
 TTTTTTTTTTTTTTTTTTTTTTTTTTTTTT FDIK        TELAPSE        4.50 TCPU        3.47
 INSULATING STATE
 TOP OF VALENCE BANDS -    BAND     50; K    1; EIG -1.6253310E-01 AU
 BOTTOM OF VIRTUAL BANDS - BAND     51; K    1; EIG  3.8509541E-01 AU
 TTTTTTTTTTTTTTTTTTTTTTTTTTTTTT PDIG        TELAPSE        4.50 TCPU        3.48
 CHARGE NORMALIZATION FACTOR   1.00000000
 TOTAL ATOMIC CHARGES:
   8.7300804   8.7300804   8.7300804   8.7300804   8.7300804   8.7300804
  11.9048794  11.9048794  11.9048794  11.9048794
 TTTTTTTTTTTTTTTTTTTTTTTTTTTTTT MOQGAD      TELAPSE        4.51 TCPU        3.49
 TTTTTTTTTTTTTTTTTTTTTTTTTTTTTT SHELLX2     TELAPSE        4.96 TCPU        3.93
 TTTTTTTTTTTTTTTTTTTTTTTTTTTTTT MONMO3      TELAPSE        5.35 TCPU        4.32
 CYC   4 ETOT(AU) -1.400393846095E+03 DETOT -1.68E-03 tst  1.14E-04 PX  1.38E-02
 TTTTTTTTTTTTTTTTTTTTTTTTTTTTTT FDIK        TELAPSE        5.35 TCPU        4.33
 INSULATING STATE
 TOP OF VALENCE BANDS -    BAND     50; K    1; EIG -1.6681829E-01 AU
 BOTTOM OF VIRTUAL BANDS - BAND     51; K    1; EIG  3.9079273E-01 AU
 TTTTTTTTTTTTTTTTTTTTTTTTTTTTTT PDIG        TELAPSE        5.36 TCPU        4.33
 CHARGE NORMALIZATION FACTOR   1.00000000
 TOTAL ATOMIC CHARGES:
   8.7301321   8.7301321   8.7301321   8.7301321   8.7301321   8.7301321
  11.9048018  11.9048018  11.9048018  11.9048018
 TTTTTTTTTTTTTTTTTTTTTTTTTTTTTT MOQGAD      TELAPSE        5.36 TCPU        4.34
 TTTTTTTTTTTTTTTTTTTTTTTTTTTTTT SHELLX2     TELAPSE        5.81 TCPU        4.79
 TTTTTTTTTTTTTTTTTTTTTTTTTTTTTT MONMO3      TELAPSE        6.20 TCPU        5.18
 CYC   5 ETOT(AU) -1.400394182178E+03 DETOT -3.36E-04 tst  2.10E-05 PX  6.92E-03
 TTTTTTTTTTTTTTTTTTTTTTTTTTTTTT FDIK        TELAPSE        6.21 TCPU        5.18
 INSULATING STATE
 TOP OF VALENCE BANDS -    BAND     50; K    3; EIG -1.6806244E-01 AU
 TOP OF VALENCE BANDS -    BAND     50; K    1; EIG -1.6822075E-01 AU
 BOTTOM OF VIRTUAL BANDS - BAND     51; K    1; EIG  3.9325818E-01 AU
 TTTTTTTTTTTTTTTTTTTTTTTTTTTTTT PDIG        TELAPSE        6.21 TCPU        5.19
 CHARGE NORMALIZATION FACTOR   1.00000000
 TOTAL ATOMIC CHARGES:
   8.7303489   8.7303489   8.7303489   8.7303489   8.7303489   8.7303489
  11.9044766  11.9044766  11.9044766  11.9044766
 TTTTTTTTTTTTTTTTTTTTTTTTTTTTTT MOQGAD      TELAPSE        6.22 TCPU        5.20
 TTTTTTTTTTTTTTTTTTTTTTTTTTTTTT SHELLX2     TELAPSE        6.67 TCPU        5.64
 TTTTTTTTTTTTTTTTTTTTTTTTTTTTTT MONMO3      TELAPSE        7.06 TCPU        6.04
 CYC   6 ETOT(AU) -1.400394253886E+03 DETOT -7.17E-05 tst  3.67E-06 PX  3.24E-03
 TTTTTTTTTTTTTTTTTTTTTTTTTTTTTT FDIK        TELAPSE        7.06 TCPU        6.04
 INSULATING STATE
 TOP OF VALENCE BANDS -    BAND     50; K    3; EIG -1.6832167E-01 AU
 TOP OF VALENCE BANDS -    BAND     50; K    1; EIG -1.6866392E-01 AU
 BOTTOM OF VIRTUAL BANDS - BAND     51; K    1; EIG  3.9435785E-01 AU
 TTTTTTTTTTTTTTTTTTTTTTTTTTTTTT PDIG        TELAPSE        7.06 TCPU        6.04
 CHARGE NORMALIZATION FACTOR   1.00000000
 TOTAL ATOMIC CHARGES:
   8.7304752   8.7304752   8.7304752   8.7304752   8.7304752   8.7304752
  11.9042871  11.9042871  11.9042871  11.9042871
 TTTTTTTTTTTTTTTTTTTTTTTTTTTTTT MOQGAD      TELAPSE        7.07 TCPU        6.05
 TTTTTTTTTTTTTTTTTTTTTTTTTTTTTT SHELLX2     TELAPSE        7.52 TCPU        6.49
 TTTTTTTTTTTTTTTTTTTTTTTTTTTTTT MONMO3      TELAPSE        7.91 TCPU        6.88
 CYC   7 ETOT(AU) -1.400394269942E+03 DETOT -1.61E-05 tst  8.11E-07 PX  1.49E-03
 TTTTTTTTTTTTTTTTTTTTTTTTTTTTTT FDIK        TELAPSE        7.92 TCPU        6.89
 INSULATING STATE
 TOP OF VALENCE BANDS -    BAND     50; K    3; EIG -1.6838015E-01 AU
 TOP OF VALENCE BANDS -    BAND     50; K    1; EIG -1.6880539E-01 AU
 BOTTOM OF VIRTUAL BANDS - BAND     51; K    1; EIG  3.9485346E-01 AU
 TTTTTTTTTTTTTTTTTTTTTTTTTTTTTT PDIG        TELAPSE        7.92 TCPU        6.89
 CHARGE NORMALIZATION FACTOR   1.00000000
 TOTAL ATOMIC CHARGES:
   8.7305349   8.7305349   8.7305349   8.7305349   8.7305349   8.7305349
  11.9041977  11.9041977  11.9041977  11.9041977
 TTTTTTTTTTTTTTTTTTTTTTTTTTTTTT MOQGAD      TELAPSE        7.93 TCPU        6.90
 TTTTTTTTTTTTTTTTTTTTTTTTTTTTTT SHELLX2     TELAPSE        8.38 TCPU        7.35
 TTTTTTTTTTTTTTTTTTTTTTTTTTTTTT MONMO3      TELAPSE        8.77 TCPU        7.74
 CYC   8 ETOT(AU) -1.400394273795E+03 DETOT -3.85E-06 tst  1.83E-07 PX  6.81E-04
 TTTTTTTTTTTTTTTTTTTTTTTTTTTTTT FDIK        TELAPSE        8.77 TCPU        7.74
 INSULATING STATE
 TOP OF VALENCE BANDS -    BAND     50; K    3; EIG -1.6838949E-01 AU
 TOP OF VALENCE BANDS -    BAND     50; K    1; EIG -1.6885336E-01 AU
 BOTTOM OF VIRTUAL BANDS - BAND     51; K    1; EIG  3.9507779E-01 AU
 TTTTTTTTTTTTTTTTTTTTTTTTTTTTTT PDIG        TELAPSE        8.77 TCPU        7.75
 CHARGE NORMALIZATION FACTOR   1.00000000
 TOTAL ATOMIC CHARGES:
   8.7305612   8.7305612   8.7305612   8.7305612   8.7305612   8.7305612
  11.9041582  11.9041582  11.9041582  11.9041582
 TTTTTTTTTTTTTTTTTTTTTTTTTTTTTT MOQGAD      TELAPSE        8.78 TCPU        7.76
 TTTTTTTTTTTTTTTTTTTTTTTTTTTTTT SHELLX2     TELAPSE        9.23 TCPU        8.20
 TTTTTTTTTTTTTTTTTTTTTTTTTTTTTT MONMO3      TELAPSE        9.62 TCPU        8.60
 CYC   9 ETOT(AU) -1.400394274812E+03 DETOT -1.02E-06 tst  4.23E-08 PX  3.11E-04
 TTTTTTTTTTTTTTTTTTTTTTTTTTTTTT FDIK        TELAPSE        9.63 TCPU        8.60
 INSULATING STATE
 TOP OF VALENCE BANDS -    BAND     50; K    3; EIG -1.6838919E-01 AU
 TOP OF VALENCE BANDS -    BAND     50; K    1; EIG -1.6887158E-01 AU
 BOTTOM OF VIRTUAL BANDS - BAND     51; K    1; EIG  3.9517955E-01 AU
 TTTTTTTTTTTTTTTTTTTTTTTTTTTTTT PDIG        TELAPSE        9.63 TCPU        8.60
 CHARGE NORMALIZATION FACTOR   1.00000000
 TOTAL ATOMIC CHARGES:
   8.7305723   8.7305723   8.7305723   8.7305723   8.7305723   8.7305723
  11.9041415  11.9041415  11.9041415  11.9041415
 TTTTTTTTTTTTTTTTTTTTTTTTTTTTTT MOQGAD      TELAPSE        9.64 TCPU        8.62
 TTTTTTTTTTTTTTTTTTTTTTTTTTTTTT SHELLX2     TELAPSE       10.09 TCPU        9.06
 TTTTTTTTTTTTTTTTTTTTTTTTTTTTTT MONMO3      TELAPSE       10.48 TCPU        9.46
 CYC  10 ETOT(AU) -1.400394275117E+03 DETOT -3.04E-07 tst  1.00E-08 PX  1.42E-04
 TTTTTTTTTTTTTTTTTTTTTTTTTTTTTT FDIK        TELAPSE       10.49 TCPU        9.46
 INSULATING STATE
 TOP OF VALENCE BANDS -    BAND     50; K    3; EIG -1.6838809E-01 AU
 TOP OF VALENCE BANDS -    BAND     50; K    1; EIG -1.6887960E-01 AU
 BOTTOM OF VIRTUAL BANDS - BAND     51; K    1; EIG  3.9522573E-01 AU
 TTTTTTTTTTTTTTTTTTTTTTTTTTTTTT PDIG        TELAPSE       10.49 TCPU        9.46
 CHARGE NORMALIZATION FACTOR   1.00000000
 TOTAL ATOMIC CHARGES:
   8.7305768   8.7305768   8.7305768   8.7305768   8.7305768   8.7305768
  11.9041348  11.9041348  11.9041348  11.9041348
 TTTTTTTTTTTTTTTTTTTTTTTTTTTTTT MOQGAD      TELAPSE       10.50 TCPU        9.47
 TTTTTTTTTTTTTTTTTTTTTTTTTTTTTT SHELLX2     TELAPSE       10.95 TCPU        9.92
 TTTTTTTTTTTTTTTTTTTTTTTTTTTTTT MONMO3      TELAPSE       11.34 TCPU       10.31
 CYC  11 ETOT(AU) -1.400394275221E+03 DETOT -1.04E-07 tst  2.42E-09 PX  6.45E-05
 TTTTTTTTTTTTTTTTTTTTTTTTTTTTTT FDIK        TELAPSE       11.34 TCPU       10.31
 INSULATING STATE
 TOP OF VALENCE BANDS -    BAND     50; K    3; EIG -1.6838752E-01 AU
 TOP OF VALENCE BANDS -    BAND     50; K    1; EIG -1.6888363E-01 AU
 BOTTOM OF VIRTUAL BANDS - BAND     51; K    1; EIG  3.9524670E-01 AU
 TTTTTTTTTTTTTTTTTTTTTTTTTTTTTT PDIG        TELAPSE       11.34 TCPU       10.32
 CHARGE NORMALIZATION FACTOR   1.00000000
 TOTAL ATOMIC CHARGES:
   8.7305785   8.7305785   8.7305785   8.7305785   8.7305785   8.7305785
  11.9041323  11.9041323  11.9041323  11.9041323
 TTTTTTTTTTTTTTTTTTTTTTTTTTTTTT MOQGAD      TELAPSE       11.35 TCPU       10.33
 TTTTTTTTTTTTTTTTTTTTTTTTTTTTTT SHELLX2     TELAPSE       11.80 TCPU       10.77
 TTTTTTTTTTTTTTTTTTTTTTTTTTTTTT MONMO3      TELAPSE       12.19 TCPU       11.16
 CYC  12 ETOT(AU) -1.400394275261E+03 DETOT -3.99E-08 tst  5.99E-10 PX  2.93E-05
 TTTTTTTTTTTTTTTTTTTTTTTTTTTTTT FDIK        TELAPSE       12.20 TCPU       11.17
 INSULATING STATE
 TOP OF VALENCE BANDS -    BAND     50; K    3; EIG -1.6838737E-01 AU
 TOP OF VALENCE BANDS -    BAND     50; K    1; EIG -1.6888586E-01 AU
 BOTTOM OF VIRTUAL BANDS - BAND     51; K    1; EIG  3.9525620E-01 AU
 TTTTTTTTTTTTTTTTTTTTTTTTTTTTTT PDIG        TELAPSE       12.20 TCPU       11.17
 CHARGE NORMALIZATION FACTOR   1.00000000
 TOTAL ATOMIC CHARGES:
   8.7305790   8.7305790   8.7305790   8.7305790   8.7305790   8.7305790
  11.9041314  11.9041314  11.9041314  11.9041314
 TTTTTTTTTTTTTTTTTTTTTTTTTTTTTT MOQGAD      TELAPSE       12.21 TCPU       11.18
 TTTTTTTTTTTTTTTTTTTTTTTTTTTTTT SHELLX2     TELAPSE       12.66 TCPU       11.63
 +++ ENERGIES IN A.U. +++
 ::: EXT EL-POLE                                  -2.5077065189683E+03
 ::: EXT EL-SPHEROPOLE                             2.1815479384770E+01
 ::: BIELET ZONE E-E                               2.7337396735787E+03
 ::: TOTAL E-E                                     2.4784863399515E+02
 ::: TOTAL E-N + N-E                              -2.6663288035706E+03
 ::: TOTAL N-N                                    -3.6471770385693E+02
 ::: KINETIC ENERGY                                1.3828035981545E+03
 ::: TOTAL   ENERGY                               -1.4003942752779E+03
 ::: VIRIAL COEFFICIENT                            9.9367968864476E-01
 TTTTTTTTTTTTTTTTTTTTTTTTTTTTTT MONMO3      TELAPSE       13.05 TCPU       12.02
 CYC  13 ETOT(AU) -1.400394275278E+03 DETOT -1.70E-08 tst  1.52E-10 PX  2.93E-05

 == SCF ENDED - CONVERGENCE ON ENERGY      E(AU) -1.4003942752779E+03 CYCLES  13

 TOTAL ENERGY(HF)(AU)(  13) -1.4003942752779E+03 DE-1.7E-08 tst 1.5E-10 PX 2.9E-05

 *******************************************************************************
 *                             FORCE CALCULATION                               *
 *******************************************************************************

 INFORMATION **** EXCPOG **** EXCH. BIPO BUFFER LENGTH (WORDS) =      720504
 INFORMATION **** GENPOG **** BIPO BUFFER LENGTH (WORDS) =       94200
 TTTTTTTTTTTTTTTTTTTTTTTTTTTTTT SHELXG      TELAPSE       19.85 TCPU       18.83

 CARTESIAN FORCES IN HARTREE/BOHR (ANALYTICAL)
   ATOM                     X                   Y                   Z
   1   8            -1.351976659837E-02  7.805640884955E-03 -1.909583602355E-14
   2   8            -8.030613211455E-15 -1.561128176990E-02 -1.643130076445E-14
   3   8             1.351976659838E-02  7.805640884946E-03 -1.287858708565E-14
   4   8             1.351976659837E-02 -7.805640884967E-03  2.087219286295E-14
   5   8             1.902182115524E-14  1.561128176992E-02  2.612724851285E-14
   6   8            -1.351976659839E-02 -7.805640884942E-03  2.139029694111E-14
   7  13            -7.654334639471E-15 -4.612964416275E-15 -6.993266597429E-03
   8  13            -7.096011907085E-16 -5.948822369694E-16  6.993266597427E-03
   9  13             3.420760671362E-15  3.010815711934E-15  6.993266597450E-03
  10  13             3.518388943882E-15 -3.132039576890E-15 -6.993266597468E-03

 RESULTANT FORCE    -6.476300976980E-16 -8.881784197001E-16 -4.440892098501E-16

 ATOMIC PART

 SYMMETRY ALLOWED FORCES (ANALYTICAL) (DIRECTION, FORCE)

    1 -3.8239675E-02    2 -1.3986533E-02

 CELL PART

 GRADIENT WITH RESPECT TO THE CELL PARAMETER IN HARTREE/BOHR
ORDER: -D/DA1X, -D/DA1Y, -D/DA1Z
       -D/DA2X, -D/DA2Y, -D/DA2Z
       -D/DA3X, -D/DA3Y, -D/DA3Z
 -0.131516930883E+00 -0.725057440564E-15 -0.426243606874E-01
  0.657584654415E-01 -0.113897003172E+00 -0.426243606874E-01
  0.657584654415E-01  0.113897003172E+00 -0.426243606874E-01

STRESS TENSOR, IN HARTREE/BOHR^3:
ORDER: 11 12 13
       21 22 23
       31 32 33
  0.178632516300E-02 -0.278738444080E-16 -0.255510240407E-16
  0.147111956598E-16  0.178632516300E-02 -0.150983323877E-16
  0.160903702529E-16 -0.278738444080E-16  0.182473735525E-02

STRESS TENSOR DOES NOT CORRESPOND TO
HYDROSTATIC PRESSURE, NO PRESSURE COMPUTED!

 SYMMETRY ALLOWED FORCES (ANALYTICAL) (DIRECTION, FORCE)

    1 -3.2967787E-01    2  1.2392751E-03
 TTTTTTTTTTTTTTTTTTTTTTTTTTTTTT TOTGRA_C    TELAPSE       26.69 TCPU       25.66
 INFORMATION **** optc001 **** GEOMETRY OUTPUT FILE
 CLASSICAL MODEL (SCHLEGEL) USED AS INITIAL HESSIAN MATRIX
 REFERENCE GEOMETRY DEFINED

 MAX GRADIENT      0.329678  THRESHOLD              0.000450 CONVERGED NO
 RMS GRADIENT      0.166093  THRESHOLD              0.000300 CONVERGED NO

 GRADIENT NORM     0.332185  GRADIENT THRESHOLD     0.500000

 EIGENVALUES OF THE ESTIMATED HESSIAN
  0.8992E-01  0.5579      0.6350       1.589    
 NEWTON STEP ( 0.5804958261E+00) EXCEEDS TRUST RADIUS ( 0.5000000000E+00)
 LEVEL SHIFT     0.6548579954E-01

 INITIAL TRUST RADIUS    0.5000000000E+00

 PREDICTED ENERGY CHANGE    -0.840E-01

 INITIAL DISPLACEMENTS
 -0.030311  0.045327 -0.402079  0.292164
 TTTTTTTTTTTTTTTTTTTTTTTTTTTTTT OPTI        TELAPSE       26.81 TCPU       25.78

 OPTOPTOPTOPTOPTOPTOPTOPTOPTOPTOPTOPTOPTOPTOPTOPTOPTOPTOPTOPTOPTOPTOPTOPTOPTOPT

 STARTING GEOMETRY OPTIMIZATION - INFORMATION ON SCF MOVED TO SCFOUT.LOG
 GEOMETRY OPTIMIZATION INFORMATION STORED IN OPTINFO.DAT

 OPTOPTOPTOPTOPTOPTOPTOPTOPTOPTOPTOPTOPTOPTOPTOPTOPTOPTOPTOPTOPTOPTOPTOPTOPTOPT
 *******************************************************************************
 COORDINATE AND CELL OPTIMIZATION - POINT    2
 *******************************************************************************
 LATTICE PARAMETERS (ANGSTROMS AND DEGREES) - BOHR = 0.5291772083 ANGSTROM
 PRIMITIVE CELL - CENTRING CODE 7/0 VOLUME=    74.518522 - DENSITY  4.544 g/cm^3
         A              B              C           ALPHA      BETA       GAMMA 
     4.86217780     4.86217780     4.86217780    56.403131  56.403131  56.403131
 *******************************************************************************
 ATOMS IN THE ASYMMETRIC UNIT    2 - ATOMS IN THE UNIT CELL:   10
     ATOM              X/A                 Y/B                 Z/C    
 *******************************************************************************
   1 T   8 O    -4.451356166407E-01 -5.486438335930E-02  2.500000000000E-01
   2 F   8 O     2.500000000000E-01 -4.451356166407E-01 -5.486438335930E-02
   3 F   8 O    -5.486438335930E-02  2.500000000000E-01 -4.451356166407E-01
   4 F   8 O     4.451356166407E-01  5.486438335930E-02 -2.500000000000E-01
   5 F   8 O    -2.500000000000E-01  4.451356166407E-01  5.486438335930E-02
   6 F   8 O     5.486438335930E-02 -2.500000000000E-01  4.451356166407E-01
   7 T  13 AL    3.530830061315E-01  3.530830061315E-01  3.530830061315E-01
   8 F  13 AL    1.469169938685E-01  1.469169938685E-01  1.469169938685E-01
   9 F  13 AL   -3.530830061315E-01 -3.530830061315E-01 -3.530830061315E-01
  10 F  13 AL   -1.469169938685E-01 -1.469169938685E-01 -1.469169938685E-01

 TRANSFORMATION MATRIX PRIMITIVE-CRYSTALLOGRAPHIC CELL
  1.0000  0.0000  1.0000 -1.0000  1.0000  1.0000  0.0000 -1.0000  1.0000

 *******************************************************************************
 CRYSTALLOGRAPHIC CELL (VOLUME=        223.55556713)
         A              B              C           ALPHA      BETA       GAMMA 
     4.59548584     4.59548584    12.22339915    90.000000  90.000000 120.000000

 COORDINATES IN THE CRYSTALLOGRAPHIC CELL
     ATOM              X/A                 Y/B                 Z/C    
 *******************************************************************************
   1 T   8 O    -3.618022833074E-01 -3.333333333333E-01 -8.333333333333E-02
   2 F   8 O     3.333333333333E-01 -2.846894997403E-02 -8.333333333333E-02
   3 F   8 O     2.846894997403E-02  3.618022833074E-01 -8.333333333333E-02
   4 F   8 O     3.618022833074E-01  3.333333333333E-01  8.333333333333E-02
   5 F   8 O    -3.333333333333E-01  2.846894997403E-02  8.333333333333E-02
   6 F   8 O    -2.846894997403E-02 -3.618022833074E-01  8.333333333333E-02
   7 T  13 AL    3.333333333333E-01 -3.333333333333E-01  1.974967279822E-02
   8 F  13 AL    0.000000000000E+00  2.468403515657E-17  1.469169938685E-01
   9 F  13 AL   -3.333333333333E-01  3.333333333333E-01 -1.974967279822E-02
  10 F  13 AL    0.000000000000E+00  0.000000000000E+00 -1.469169938685E-01

 T = ATOM BELONGING TO THE ASYMMETRIC UNIT

 TOTAL ENERGY(HF)(AU)(  10) -1.4004669938422E+03     DE (AU)   -7.272E-02

 UPDATED TRUST RADIUS     0.100E+01

 SYMMETRY ALLOWED FORCES  (COORDINATE, FORCE)

    1 -2.1298683E-02    2 -1.5763117E-02    3 -1.7941660E-02    4 -8.9926107E-03

 GRADIENT NORM     0.033240  GRADIENT THRESHOLD     0.500000

 EIGENVALUES OF THE ESTIMATED HESSIAN
  0.8534E-01  0.6087      0.8007       1.587    

 PREDICTED ENERGY CHANGE    -0.108E-02

 MAX GRADIENT      0.021299  THRESHOLD              0.000450 CONVERGED NO
 RMS GRADIENT      0.016620  THRESHOLD              0.000300 CONVERGED NO
 MAX DISPLAC.      0.100766  THRESHOLD              0.001800 CONVERGED NO
 RMS DISPLAC.      0.054247  THRESHOLD              0.001200 CONVERGED NO
 TTTTTTTTTTTTTTTTTTTTTTTTTTTTTT OPTI        TELAPSE       49.88 TCPU       48.84
 *******************************************************************************
 COORDINATE AND CELL OPTIMIZATION - POINT    3
 *******************************************************************************
 LATTICE PARAMETERS (ANGSTROMS AND DEGREES) - BOHR = 0.5291772083 ANGSTROM
 PRIMITIVE CELL - CENTRING CODE 7/0 VOLUME=    74.132381 - DENSITY  4.567 g/cm^3
         A              B              C           ALPHA      BETA       GAMMA 
     4.86909057     4.86909057     4.86909057    56.036631  56.036631  56.036631
 *******************************************************************************
 ATOMS IN THE ASYMMETRIC UNIT    2 - ATOMS IN THE UNIT CELL:   10
     ATOM              X/A                 Y/B                 Z/C    
 *******************************************************************************
   1 T   8 O    -4.465825211312E-01 -5.341747886882E-02  2.500000000000E-01
   2 F   8 O     2.500000000000E-01 -4.465825211312E-01 -5.341747886882E-02
   3 F   8 O    -5.341747886882E-02  2.500000000000E-01 -4.465825211312E-01
   4 F   8 O     4.465825211312E-01  5.341747886882E-02 -2.500000000000E-01
   5 F   8 O    -2.500000000000E-01  4.465825211312E-01  5.341747886882E-02
   6 F   8 O     5.341747886882E-02 -2.500000000000E-01  4.465825211312E-01
   7 T  13 AL    3.527080386550E-01  3.527080386550E-01  3.527080386550E-01
   8 F  13 AL    1.472919613450E-01  1.472919613450E-01  1.472919613450E-01
   9 F  13 AL   -3.527080386550E-01 -3.527080386550E-01 -3.527080386550E-01
  10 F  13 AL   -1.472919613450E-01 -1.472919613450E-01 -1.472919613450E-01

 TRANSFORMATION MATRIX PRIMITIVE-CRYSTALLOGRAPHIC CELL
  1.0000  0.0000  1.0000 -1.0000  1.0000  1.0000  0.0000 -1.0000  1.0000

 *******************************************************************************
 CRYSTALLOGRAPHIC CELL (VOLUME=        222.39714341)
         A              B              C           ALPHA      BETA       GAMMA 
     4.57454747     4.57454747    12.27163122    90.000000  90.000000 120.000000

 COORDINATES IN THE CRYSTALLOGRAPHIC CELL
     ATOM              X/A                 Y/B                 Z/C    
 *******************************************************************************
   1 T   8 O    -3.632491877978E-01 -3.333333333333E-01 -8.333333333333E-02
   2 F   8 O     3.333333333333E-01 -2.991585446451E-02 -8.333333333333E-02
   3 F   8 O     2.991585446451E-02  3.632491877978E-01 -8.333333333333E-02
   4 F   8 O     3.632491877978E-01  3.333333333333E-01  8.333333333333E-02
   5 F   8 O    -3.333333333333E-01  2.991585446451E-02  8.333333333333E-02
   6 F   8 O    -2.991585446451E-02 -3.632491877978E-01  8.333333333333E-02
   7 T  13 AL    3.333333333333E-01 -3.333333333333E-01  1.937470532166E-02
   8 F  13 AL    0.000000000000E+00  2.468403515657E-17  1.472919613450E-01
   9 F  13 AL   -3.333333333333E-01  3.333333333333E-01 -1.937470532166E-02
  10 F  13 AL    0.000000000000E+00  0.000000000000E+00 -1.472919613450E-01

 T = ATOM BELONGING TO THE ASYMMETRIC UNIT

 TOTAL ENERGY(HF)(AU)(   8) -1.4004684850902E+03     DE (AU)   -1.491E-03

 UPDATED TRUST RADIUS     0.200E+01

 SYMMETRY ALLOWED FORCES  (COORDINATE, FORCE)

    1 -4.7786269E-03    2 -1.1259829E-02    3 -1.9390019E-03    4 -4.0532660E-03

 GRADIENT NORM     0.013031  GRADIENT THRESHOLD     0.500000

 EIGENVALUES OF THE ESTIMATED HESSIAN
  0.5655E-01  0.5740      0.8479       1.514    

 PREDICTED ENERGY CHANGE    -0.345E-03

 MAX GRADIENT      0.011260  THRESHOLD              0.000450 CONVERGED NO
 RMS GRADIENT      0.006516  THRESHOLD              0.000300 CONVERGED NO
 MAX DISPLAC.      0.096819  THRESHOLD              0.001800 CONVERGED NO
 RMS DISPLAC.      0.049970  THRESHOLD              0.001200 CONVERGED NO
 TTTTTTTTTTTTTTTTTTTTTTTTTTTTTT OPTI        TELAPSE       71.20 TCPU       70.16
 *******************************************************************************
 COORDINATE AND CELL OPTIMIZATION - POINT    4
 *******************************************************************************
 LATTICE PARAMETERS (ANGSTROMS AND DEGREES) - BOHR = 0.5291772083 ANGSTROM
 PRIMITIVE CELL - CENTRING CODE 7/0 VOLUME=    74.127735 - DENSITY  4.567 g/cm^3
         A              B              C           ALPHA      BETA       GAMMA 
     4.88387276     4.88387276     4.88387276    55.685998  55.685998  55.685998
 *******************************************************************************
 ATOMS IN THE ASYMMETRIC UNIT    2 - ATOMS IN THE UNIT CELL:   10
     ATOM              X/A                 Y/B                 Z/C    
 *******************************************************************************
   1 T   8 O    -4.472039258605E-01 -5.279607413950E-02  2.500000000000E-01
   2 F   8 O     2.500000000000E-01 -4.472039258605E-01 -5.279607413950E-02
   3 F   8 O    -5.279607413950E-02  2.500000000000E-01 -4.472039258605E-01
   4 F   8 O     4.472039258605E-01  5.279607413950E-02 -2.500000000000E-01
   5 F   8 O    -2.500000000000E-01  4.472039258605E-01  5.279607413950E-02
   6 F   8 O     5.279607413950E-02 -2.500000000000E-01  4.472039258605E-01
   7 T  13 AL    3.522873586840E-01  3.522873586840E-01  3.522873586840E-01
   8 F  13 AL    1.477126413160E-01  1.477126413160E-01  1.477126413160E-01
   9 F  13 AL   -3.522873586840E-01 -3.522873586840E-01 -3.522873586840E-01
  10 F  13 AL   -1.477126413160E-01 -1.477126413160E-01 -1.477126413160E-01

 TRANSFORMATION MATRIX PRIMITIVE-CRYSTALLOGRAPHIC CELL
  1.0000  0.0000  1.0000 -1.0000  1.0000  1.0000  0.0000 -1.0000  1.0000

 *******************************************************************************
 CRYSTALLOGRAPHIC CELL (VOLUME=        222.38320467)
         A              B              C           ALPHA      BETA       GAMMA 
     4.56202914     4.56202914    12.33829765    90.000000  90.000000 120.000000

 COORDINATES IN THE CRYSTALLOGRAPHIC CELL
     ATOM              X/A                 Y/B                 Z/C    
 *******************************************************************************
   1 T   8 O    -3.638705925272E-01 -3.333333333333E-01 -8.333333333333E-02
   2 F   8 O     3.333333333333E-01 -3.053725919383E-02 -8.333333333333E-02
   3 F   8 O     3.053725919383E-02  3.638705925272E-01 -8.333333333333E-02
   4 F   8 O     3.638705925272E-01  3.333333333333E-01  8.333333333333E-02
   5 F   8 O    -3.333333333333E-01  3.053725919383E-02  8.333333333333E-02
   6 F   8 O    -3.053725919383E-02 -3.638705925272E-01  8.333333333333E-02
   7 T  13 AL    3.333333333333E-01 -3.333333333333E-01  1.895402535069E-02
   8 F  13 AL    0.000000000000E+00  2.468403515657E-17  1.477126413160E-01
   9 F  13 AL   -3.333333333333E-01  3.333333333333E-01 -1.895402535069E-02
  10 F  13 AL    0.000000000000E+00  0.000000000000E+00 -1.477126413160E-01

 T = ATOM BELONGING TO THE ASYMMETRIC UNIT

 TOTAL ENERGY(HF)(AU)(   8) -1.4004688621902E+03     DE (AU)   -3.771E-04

 UPDATED TRUST RADIUS     0.400E+01

 SYMMETRY ALLOWED FORCES  (COORDINATE, FORCE)

    1  3.8637101E-03    2 -7.4747958E-03    3 -5.5200941E-05    4  4.1922386E-04

 GRADIENT NORM     0.008425  GRADIENT THRESHOLD     0.500000

 EIGENVALUES OF THE ESTIMATED HESSIAN
  0.5076E-01  0.6328      0.8496       1.392    

 PREDICTED ENERGY CHANGE    -0.335E-04

 MAX GRADIENT      0.007475  THRESHOLD              0.000450 CONVERGED NO
 RMS GRADIENT      0.004212  THRESHOLD              0.000300 CONVERGED NO
 MAX DISPLAC.      0.015347  THRESHOLD              0.001800 CONVERGED NO
 RMS DISPLAC.      0.008830  THRESHOLD              0.001200 CONVERGED NO
 TTTTTTTTTTTTTTTTTTTTTTTTTTTTTT OPTI        TELAPSE       92.56 TCPU       91.51
 *******************************************************************************
 COORDINATE AND CELL OPTIMIZATION - POINT    5
 *******************************************************************************
 LATTICE PARAMETERS (ANGSTROMS AND DEGREES) - BOHR = 0.5291772083 ANGSTROM
 PRIMITIVE CELL - CENTRING CODE 7/0 VOLUME=    74.125688 - DENSITY  4.568 g/cm^3
         A              B              C           ALPHA      BETA       GAMMA 
     4.88620628     4.88620628     4.88620628    55.630441  55.630441  55.630441
 *******************************************************************************
 ATOMS IN THE ASYMMETRIC UNIT    2 - ATOMS IN THE UNIT CELL:   10
     ATOM              X/A                 Y/B                 Z/C    
 *******************************************************************************
   1 T   8 O    -4.470109464071E-01 -5.298905359286E-02  2.500000000000E-01
   2 F   8 O     2.500000000000E-01 -4.470109464071E-01 -5.298905359286E-02
   3 F   8 O    -5.298905359286E-02  2.500000000000E-01 -4.470109464071E-01
   4 F   8 O     4.470109464071E-01  5.298905359286E-02 -2.500000000000E-01
   5 F   8 O    -2.500000000000E-01  4.470109464071E-01  5.298905359286E-02
   6 F   8 O     5.298905359286E-02 -2.500000000000E-01  4.470109464071E-01
   7 T  13 AL    3.521319617734E-01  3.521319617734E-01  3.521319617734E-01
   8 F  13 AL    1.478680382266E-01  1.478680382266E-01  1.478680382266E-01
   9 F  13 AL   -3.521319617734E-01 -3.521319617734E-01 -3.521319617734E-01
  10 F  13 AL   -1.478680382266E-01 -1.478680382266E-01 -1.478680382266E-01

 TRANSFORMATION MATRIX PRIMITIVE-CRYSTALLOGRAPHIC CELL
  1.0000  0.0000  1.0000 -1.0000  1.0000  1.0000  0.0000 -1.0000  1.0000

 *******************************************************************************
 CRYSTALLOGRAPHIC CELL (VOLUME=        222.37706303)
         A              B              C           ALPHA      BETA       GAMMA 
     4.56001887     4.56001887    12.34883759    90.000000  90.000000 120.000000

 COORDINATES IN THE CRYSTALLOGRAPHIC CELL
     ATOM              X/A                 Y/B                 Z/C    
 *******************************************************************************
   1 T   8 O    -3.636776130738E-01 -3.333333333333E-01 -8.333333333333E-02
   2 F   8 O     3.333333333333E-01 -3.034427974047E-02 -8.333333333333E-02
   3 F   8 O     3.034427974047E-02  3.636776130738E-01 -8.333333333333E-02
   4 F   8 O     3.636776130738E-01  3.333333333333E-01  8.333333333333E-02
   5 F   8 O    -3.333333333333E-01  3.034427974047E-02  8.333333333333E-02
   6 F   8 O    -3.034427974047E-02 -3.636776130738E-01  8.333333333333E-02
   7 T  13 AL    3.333333333333E-01 -3.333333333333E-01  1.879862844011E-02
   8 F  13 AL    0.000000000000E+00  2.468403515657E-17  1.478680382266E-01
   9 F  13 AL   -3.333333333333E-01  3.333333333333E-01 -1.879862844011E-02
  10 F  13 AL    0.000000000000E+00  0.000000000000E+00 -1.478680382266E-01

 T = ATOM BELONGING TO THE ASYMMETRIC UNIT

 TOTAL ENERGY(HF)(AU)(   5) -1.4004689178428E+03     DE (AU)   -5.565E-05

 UPDATED TRUST RADIUS     0.400E+01

 SYMMETRY ALLOWED FORCES  (COORDINATE, FORCE)

    1  2.8618928E-03    2 -5.9758805E-03    3  4.0461446E-05    4  8.8524690E-04

 GRADIENT NORM     0.006685  GRADIENT THRESHOLD     0.500000

 EIGENVALUES OF THE ESTIMATED HESSIAN
  0.5515E-01  0.3736      0.7392      0.8502    

 PREDICTED ENERGY CHANGE    -0.622E-04

 MAX GRADIENT      0.005976  THRESHOLD              0.000450 CONVERGED NO
 RMS GRADIENT      0.003342  THRESHOLD              0.000300 CONVERGED NO
 MAX DISPLAC.      0.017458  THRESHOLD              0.001800 CONVERGED NO
 RMS DISPLAC.      0.012579  THRESHOLD              0.001200 CONVERGED NO
 TTTTTTTTTTTTTTTTTTTTTTTTTTTTTT OPTI        TELAPSE      111.36 TCPU      110.30
 *******************************************************************************
 COORDINATE AND CELL OPTIMIZATION - POINT    6
 *******************************************************************************
 LATTICE PARAMETERS (ANGSTROMS AND DEGREES) - BOHR = 0.5291772083 ANGSTROM
 PRIMITIVE CELL - CENTRING CODE 7/0 VOLUME=    74.116094 - DENSITY  4.568 g/cm^3
         A              B              C           ALPHA      BETA       GAMMA 
     4.88818041     4.88818041     4.88818041    55.579515  55.579515  55.579515
 *******************************************************************************
 ATOMS IN THE ASYMMETRIC UNIT    2 - ATOMS IN THE UNIT CELL:   10
     ATOM              X/A                 Y/B                 Z/C    
 *******************************************************************************
   1 T   8 O    -4.464936564792E-01 -5.350634352083E-02  2.500000000000E-01
   2 F   8 O     2.500000000000E-01 -4.464936564792E-01 -5.350634352083E-02
   3 F   8 O    -5.350634352083E-02  2.500000000000E-01 -4.464936564792E-01
   4 F   8 O     4.464936564792E-01  5.350634352083E-02 -2.500000000000E-01
   5 F   8 O    -2.500000000000E-01  4.464936564792E-01  5.350634352083E-02
   6 F   8 O     5.350634352083E-02 -2.500000000000E-01  4.464936564792E-01
   7 T  13 AL    3.517764645433E-01  3.517764645433E-01  3.517764645433E-01
   8 F  13 AL    1.482235354567E-01  1.482235354567E-01  1.482235354567E-01
   9 F  13 AL   -3.517764645433E-01 -3.517764645433E-01 -3.517764645433E-01
  10 F  13 AL   -1.482235354567E-01 -1.482235354567E-01 -1.482235354567E-01

 TRANSFORMATION MATRIX PRIMITIVE-CRYSTALLOGRAPHIC CELL
  1.0000  0.0000  1.0000 -1.0000  1.0000  1.0000  0.0000 -1.0000  1.0000

 *******************************************************************************
 CRYSTALLOGRAPHIC CELL (VOLUME=        222.34828320)
         A              B              C           ALPHA      BETA       GAMMA 
     4.55801808     4.55801808    12.35808169    90.000000  90.000000 120.000000

 COORDINATES IN THE CRYSTALLOGRAPHIC CELL
     ATOM              X/A                 Y/B                 Z/C    
 *******************************************************************************
   1 T   8 O    -3.631603231458E-01 -3.333333333333E-01 -8.333333333333E-02
   2 F   8 O     3.333333333333E-01 -2.982698981251E-02 -8.333333333333E-02
   3 F   8 O     2.982698981251E-02  3.631603231458E-01 -8.333333333333E-02
   4 F   8 O     3.631603231458E-01  3.333333333333E-01  8.333333333333E-02
   5 F   8 O    -3.333333333333E-01  2.982698981251E-02  8.333333333333E-02
   6 F   8 O    -2.982698981251E-02 -3.631603231458E-01  8.333333333333E-02
   7 T  13 AL    3.333333333333E-01 -3.333333333333E-01  1.844313120993E-02
   8 F  13 AL    0.000000000000E+00  2.468403515657E-17  1.482235354567E-01
   9 F  13 AL   -3.333333333333E-01  3.333333333333E-01 -1.844313120993E-02
  10 F  13 AL    0.000000000000E+00  0.000000000000E+00 -1.482235354567E-01

 T = ATOM BELONGING TO THE ASYMMETRIC UNIT

 TOTAL ENERGY(HF)(AU)(   5) -1.4004689872673E+03     DE (AU)   -6.942E-05

 UPDATED TRUST RADIUS     0.400E+01

 SYMMETRY ALLOWED FORCES  (COORDINATE, FORCE)

    1 -1.8303363E-04    2 -1.5412160E-03    3  1.4873963E-04    4  7.1990419E-04

 GRADIENT NORM     0.001717  GRADIENT THRESHOLD     0.500000

 EIGENVALUES OF THE ESTIMATED HESSIAN
  0.6180E-01  0.3104      0.7007      0.8500    

 PREDICTED ENERGY CHANGE    -0.387E-05

 MAX GRADIENT      0.001541  THRESHOLD              0.000450 CONVERGED NO
 RMS GRADIENT      0.000859  THRESHOLD              0.000300 CONVERGED NO
 MAX DISPLAC.      0.005652  THRESHOLD              0.001800 CONVERGED NO
 RMS DISPLAC.      0.003119  THRESHOLD              0.001200 CONVERGED NO
 TTTTTTTTTTTTTTTTTTTTTTTTTTTTTT OPTI        TELAPSE      130.15 TCPU      129.10
 *******************************************************************************
 COORDINATE AND CELL OPTIMIZATION - POINT    7
 *******************************************************************************
 LATTICE PARAMETERS (ANGSTROMS AND DEGREES) - BOHR = 0.5291772083 ANGSTROM
 PRIMITIVE CELL - CENTRING CODE 7/0 VOLUME=    74.116304 - DENSITY  4.568 g/cm^3
         A              B              C           ALPHA      BETA       GAMMA 
     4.88730683     4.88730683     4.88730683    55.599971  55.599971  55.599971
 *******************************************************************************
 ATOMS IN THE ASYMMETRIC UNIT    2 - ATOMS IN THE UNIT CELL:   10
     ATOM              X/A                 Y/B                 Z/C    
 *******************************************************************************
   1 T   8 O    -4.464541142468E-01 -5.354588575315E-02  2.500000000000E-01
   2 F   8 O     2.500000000000E-01 -4.464541142468E-01 -5.354588575315E-02
   3 F   8 O    -5.354588575315E-02  2.500000000000E-01 -4.464541142468E-01
   4 F   8 O     4.464541142468E-01  5.354588575315E-02 -2.500000000000E-01
   5 F   8 O    -2.500000000000E-01  4.464541142468E-01  5.354588575315E-02
   6 F   8 O     5.354588575315E-02 -2.500000000000E-01  4.464541142468E-01
   7 T  13 AL    3.517257588424E-01  3.517257588424E-01  3.517257588424E-01
   8 F  13 AL    1.482742411576E-01  1.482742411576E-01  1.482742411576E-01
   9 F  13 AL   -3.517257588424E-01 -3.517257588424E-01 -3.517257588424E-01
  10 F  13 AL   -1.482742411576E-01 -1.482742411576E-01 -1.482742411576E-01

 TRANSFORMATION MATRIX PRIMITIVE-CRYSTALLOGRAPHIC CELL
  1.0000  0.0000  1.0000 -1.0000  1.0000  1.0000  0.0000 -1.0000  1.0000

 *******************************************************************************
 CRYSTALLOGRAPHIC CELL (VOLUME=        222.34891180)
         A              B              C           ALPHA      BETA       GAMMA 
     4.55874702     4.55874702    12.35416485    90.000000  90.000000 120.000000

 COORDINATES IN THE CRYSTALLOGRAPHIC CELL
     ATOM              X/A                 Y/B                 Z/C    
 *******************************************************************************
   1 T   8 O    -3.631207809135E-01 -3.333333333333E-01 -8.333333333333E-02
   2 F   8 O     3.333333333333E-01 -2.978744758018E-02 -8.333333333333E-02
   3 F   8 O     2.978744758018E-02  3.631207809135E-01 -8.333333333333E-02
   4 F   8 O     3.631207809135E-01  3.333333333333E-01  8.333333333333E-02
   5 F   8 O    -3.333333333333E-01  2.978744758018E-02  8.333333333333E-02
   6 F   8 O    -2.978744758018E-02 -3.631207809135E-01  8.333333333333E-02
   7 T  13 AL    3.333333333333E-01 -3.333333333333E-01  1.839242550908E-02
   8 F  13 AL    0.000000000000E+00  2.468403515657E-17  1.482742411576E-01
   9 F  13 AL   -3.333333333333E-01  3.333333333333E-01 -1.839242550908E-02
  10 F  13 AL    0.000000000000E+00  0.000000000000E+00 -1.482742411576E-01

 T = ATOM BELONGING TO THE ASYMMETRIC UNIT

 TOTAL ENERGY(HF)(AU)(   3) -1.4004689920442E+03     DE (AU)   -4.777E-06

 UPDATED TRUST RADIUS     0.400E+01

 SYMMETRY ALLOWED FORCES  (COORDINATE, FORCE)

    1 -2.6691044E-04    2 -3.8346226E-04    3  7.4726588E-05    4  2.2267897E-04

 GRADIENT NORM     0.000523  GRADIENT THRESHOLD     0.500000

 EIGENVALUES OF THE ESTIMATED HESSIAN
  0.5343E-01  0.3076      0.6089      0.8499    

 PREDICTED ENERGY CHANGE    -0.475E-06

 MAX GRADIENT      0.000383  THRESHOLD              0.000450 CONVERGED YES
 RMS GRADIENT      0.000261  THRESHOLD              0.000300 CONVERGED YES
 MAX DISPLAC.      0.003087  THRESHOLD              0.001800 CONVERGED NO
 RMS DISPLAC.      0.001569  THRESHOLD              0.001200 CONVERGED NO
 TTTTTTTTTTTTTTTTTTTTTTTTTTTTTT OPTI        TELAPSE      147.24 TCPU      146.17
 *******************************************************************************
 COORDINATE AND CELL OPTIMIZATION - POINT    8
 *******************************************************************************
 LATTICE PARAMETERS (ANGSTROMS AND DEGREES) - BOHR = 0.5291772083 ANGSTROM
 PRIMITIVE CELL - CENTRING CODE 7/0 VOLUME=    74.118046 - DENSITY  4.568 g/cm^3
         A              B              C           ALPHA      BETA       GAMMA 
     4.88686579     4.88686579     4.88686579    55.611143  55.611143  55.611143
 *******************************************************************************
 ATOMS IN THE ASYMMETRIC UNIT    2 - ATOMS IN THE UNIT CELL:   10
     ATOM              X/A                 Y/B                 Z/C    
 *******************************************************************************
   1 T   8 O    -4.464712445585E-01 -5.352875544150E-02  2.500000000000E-01
   2 F   8 O     2.500000000000E-01 -4.464712445585E-01 -5.352875544150E-02
   3 F   8 O    -5.352875544150E-02  2.500000000000E-01 -4.464712445585E-01
   4 F   8 O     4.464712445585E-01  5.352875544150E-02 -2.500000000000E-01
   5 F   8 O    -2.500000000000E-01  4.464712445585E-01  5.352875544150E-02
   6 F   8 O     5.352875544150E-02 -2.500000000000E-01  4.464712445585E-01
   7 T  13 AL    3.517174401827E-01  3.517174401827E-01  3.517174401827E-01
   8 F  13 AL    1.482825598173E-01  1.482825598173E-01  1.482825598173E-01
   9 F  13 AL   -3.517174401827E-01 -3.517174401827E-01 -3.517174401827E-01
  10 F  13 AL   -1.482825598173E-01 -1.482825598173E-01 -1.482825598173E-01

 TRANSFORMATION MATRIX PRIMITIVE-CRYSTALLOGRAPHIC CELL
  1.0000  0.0000  1.0000 -1.0000  1.0000  1.0000  0.0000 -1.0000  1.0000

 *******************************************************************************
 CRYSTALLOGRAPHIC CELL (VOLUME=        222.35413814)
         A              B              C           ALPHA      BETA       GAMMA 
     4.55917852     4.55917852    12.35211677    90.000000  90.000000 120.000000

 COORDINATES IN THE CRYSTALLOGRAPHIC CELL
     ATOM              X/A                 Y/B                 Z/C    
 *******************************************************************************
   1 T   8 O    -3.631379112252E-01 -3.333333333333E-01 -8.333333333333E-02
   2 F   8 O     3.333333333333E-01 -2.980457789184E-02 -8.333333333333E-02
   3 F   8 O     2.980457789184E-02  3.631379112252E-01 -8.333333333333E-02
   4 F   8 O     3.631379112252E-01  3.333333333333E-01  8.333333333333E-02
   5 F   8 O    -3.333333333333E-01  2.980457789184E-02  8.333333333333E-02
   6 F   8 O    -2.980457789184E-02 -3.631379112252E-01  8.333333333333E-02
   7 T  13 AL    3.333333333333E-01 -3.333333333333E-01  1.838410684932E-02
   8 F  13 AL    0.000000000000E+00  2.468403515657E-17  1.482825598173E-01
   9 F  13 AL   -3.333333333333E-01  3.333333333333E-01 -1.838410684932E-02
  10 F  13 AL    0.000000000000E+00  0.000000000000E+00 -1.482825598173E-01

 T = ATOM BELONGING TO THE ASYMMETRIC UNIT

 TOTAL ENERGY(HF)(AU)(   3) -1.4004689925606E+03     DE (AU)   -5.164E-07

 UPDATED TRUST RADIUS     0.400E+01

 SYMMETRY ALLOWED FORCES  (COORDINATE, FORCE)

    1 -5.2937132E-05    2 -7.6072785E-05    3  7.5293026E-06    4  3.0737008E-05

 GRADIENT NORM     0.000098  GRADIENT THRESHOLD     0.500000

 EIGENVALUES OF THE ESTIMATED HESSIAN
  0.5100E-01  0.2956      0.5613      0.8501    

 PREDICTED ENERGY CHANGE    -0.144E-07

 MAX GRADIENT      0.000076  THRESHOLD              0.000450 CONVERGED YES
 RMS GRADIENT      0.000049  THRESHOLD              0.000300 CONVERGED YES
 MAX DISPLAC.      0.000444  THRESHOLD              0.001800 CONVERGED YES
 RMS DISPLAC.      0.000236  THRESHOLD              0.001200 CONVERGED YES

 CONVERGENCE TESTS SATISFIED AFTER   8 ENERGY AND GRADIENT CALCULATIONS
++++++++++++++++++++++++++++++++++++++++++++++++++++++++++++++++++++++
 FINALRUN OPTION: RE-STARTING OPTIMIZATION
++++++++++++++++++++++++++++++++++++++++++++++++++++++++++++++++++++++
 TTTTTTTTTTTTTTTTTTTTTTTTTTTTTT OPTI        TELAPSE      164.32 TCPU      163.25
 *******************************************************************************
 COORDINATE AND CELL OPTIMIZATION - POINT    9
 *******************************************************************************
 LATTICE PARAMETERS (ANGSTROMS AND DEGREES) - BOHR = 0.5291772083 ANGSTROM
 PRIMITIVE CELL - CENTRING CODE 7/0 VOLUME=    74.118297 - DENSITY  4.568 g/cm^3
         A              B              C           ALPHA      BETA       GAMMA 
     4.88680238     4.88680238     4.88680238    55.612750  55.612750  55.612750
 *******************************************************************************
 ATOMS IN THE ASYMMETRIC UNIT    2 - ATOMS IN THE UNIT CELL:   10
     ATOM              X/A                 Y/B                 Z/C    
 *******************************************************************************
   1 T   8 O    -4.464748424390E-01 -5.352515756102E-02  2.500000000000E-01
   2 F   8 O     2.500000000000E-01 -4.464748424390E-01 -5.352515756102E-02
   3 F   8 O    -5.352515756102E-02  2.500000000000E-01 -4.464748424390E-01
   4 F   8 O     4.464748424390E-01  5.352515756102E-02 -2.500000000000E-01
   5 F   8 O    -2.500000000000E-01  4.464748424390E-01  5.352515756102E-02
   6 F   8 O     5.352515756102E-02 -2.500000000000E-01  4.464748424390E-01
   7 T  13 AL    3.517145523727E-01  3.517145523727E-01  3.517145523727E-01
   8 F  13 AL    1.482854476273E-01  1.482854476273E-01  1.482854476273E-01
   9 F  13 AL   -3.517145523727E-01 -3.517145523727E-01 -3.517145523727E-01
  10 F  13 AL   -1.482854476273E-01 -1.482854476273E-01 -1.482854476273E-01

 TRANSFORMATION MATRIX PRIMITIVE-CRYSTALLOGRAPHIC CELL
  1.0000  0.0000  1.0000 -1.0000  1.0000  1.0000  0.0000 -1.0000  1.0000

 *******************************************************************************
 CRYSTALLOGRAPHIC CELL (VOLUME=        222.35489183)
         A              B              C           ALPHA      BETA       GAMMA 
     4.55924060     4.55924060    12.35182225    90.000000  90.000000 120.000000

 COORDINATES IN THE CRYSTALLOGRAPHIC CELL
     ATOM              X/A                 Y/B                 Z/C    
 *******************************************************************************
   1 T   8 O    -3.631415091056E-01 -3.333333333333E-01 -8.333333333333E-02
   2 F   8 O     3.333333333333E-01 -2.980817577231E-02 -8.333333333333E-02
   3 F   8 O     2.980817577231E-02  3.631415091056E-01 -8.333333333333E-02
   4 F   8 O     3.631415091056E-01  3.333333333333E-01  8.333333333333E-02
   5 F   8 O    -3.333333333333E-01  2.980817577231E-02  8.333333333333E-02
   6 F   8 O    -2.980817577231E-02 -3.631415091056E-01  8.333333333333E-02
   7 T  13 AL    3.333333333333E-01 -3.333333333333E-01  1.838121903940E-02
   8 F  13 AL    0.000000000000E+00  2.468403515657E-17  1.482854476273E-01
   9 F  13 AL   -3.333333333333E-01  3.333333333333E-01 -1.838121903940E-02
  10 F  13 AL    0.000000000000E+00  0.000000000000E+00 -1.482854476273E-01

 T = ATOM BELONGING TO THE ASYMMETRIC UNIT

 ENERGY DIFFERENCE WITH RESPECT TO FIRST CALCULATION USING
 THE PRESENT REFERENCE GEOMETRY:  1.400468992561E+03

 MAXIMUM ATOM DISPLACEMENT WITH RESPECT TO
 THE PRESENT REFERENCE GEOMETRY:   2.217558006603E-01

 REFERENCE GEOMETRY WILL BE CHANGED

 TOTAL ENERGY(HF)(AU)(  12) -1.4004693419803E+03     DE (AU)   -3.494E-04

 SYMMETRY ALLOWED FORCES  (COORDINATE, FORCE)

    1  1.6457655E-04    2  5.8532994E-04    3 -3.1525749E-04    4  1.4586705E-04

 GRADIENT NORM     0.000700  GRADIENT THRESHOLD     0.500000

 HESSIAN UPDATE SKIPPED

 EIGENVALUES OF THE ESTIMATED HESSIAN
  0.5100E-01  0.2956      0.5613      0.8501    

 PREDICTED ENERGY CHANGE    -0.101E-05

 MAX GRADIENT      0.000585  THRESHOLD              0.000450 CONVERGED NO
 RMS GRADIENT      0.000350  THRESHOLD              0.000300 CONVERGED NO
 MAX DISPLAC.      0.004163  THRESHOLD              0.001800 CONVERGED NO
 RMS DISPLAC.      0.002374  THRESHOLD              0.001200 CONVERGED NO
 TTTTTTTTTTTTTTTTTTTTTTTTTTTTTT OPTI        TELAPSE      203.06 TCPU      201.98
 *******************************************************************************
 COORDINATE AND CELL OPTIMIZATION - POINT   10
 *******************************************************************************
 LATTICE PARAMETERS (ANGSTROMS AND DEGREES) - BOHR = 0.5291772083 ANGSTROM
 PRIMITIVE CELL - CENTRING CODE 7/0 VOLUME=    74.107835 - DENSITY  4.569 g/cm^3
         A              B              C           ALPHA      BETA       GAMMA 
     4.88592632     4.88592632     4.88592632    55.627819  55.627819  55.627819
 *******************************************************************************
 ATOMS IN THE ASYMMETRIC UNIT    2 - ATOMS IN THE UNIT CELL:   10
     ATOM              X/A                 Y/B                 Z/C    
 *******************************************************************************
   1 T   8 O    -4.464838354809E-01 -5.351616451906E-02  2.500000000000E-01
   2 F   8 O     2.500000000000E-01 -4.464838354809E-01 -5.351616451906E-02
   3 F   8 O    -5.351616451906E-02  2.500000000000E-01 -4.464838354809E-01
   4 F   8 O     4.464838354809E-01  5.351616451906E-02 -2.500000000000E-01
   5 F   8 O    -2.500000000000E-01  4.464838354809E-01  5.351616451906E-02
   6 F   8 O     5.351616451906E-02 -2.500000000000E-01  4.464838354809E-01
   7 T  13 AL    3.517599910840E-01  3.517599910840E-01  3.517599910840E-01
   8 F  13 AL    1.482400089160E-01  1.482400089160E-01  1.482400089160E-01
   9 F  13 AL   -3.517599910840E-01 -3.517599910840E-01 -3.517599910840E-01
  10 F  13 AL   -1.482400089160E-01 -1.482400089160E-01 -1.482400089160E-01

 TRANSFORMATION MATRIX PRIMITIVE-CRYSTALLOGRAPHIC CELL
  1.0000  0.0000  1.0000 -1.0000  1.0000  1.0000  0.0000 -1.0000  1.0000

 *******************************************************************************
 CRYSTALLOGRAPHIC CELL (VOLUME=        222.32350367)
         A              B              C           ALPHA      BETA       GAMMA 
     4.55955989     4.55955989    12.34834906    90.000000  90.000000 120.000000

 COORDINATES IN THE CRYSTALLOGRAPHIC CELL
     ATOM              X/A                 Y/B                 Z/C    
 *******************************************************************************
   1 T   8 O    -3.631505021476E-01 -3.333333333333E-01 -8.333333333333E-02
   2 F   8 O     3.333333333333E-01 -2.981716881428E-02 -8.333333333333E-02
   3 F   8 O     2.981716881428E-02  3.631505021476E-01 -8.333333333333E-02
   4 F   8 O     3.631505021476E-01  3.333333333333E-01  8.333333333333E-02
   5 F   8 O    -3.333333333333E-01  2.981716881428E-02  8.333333333333E-02
   6 F   8 O    -2.981716881428E-02 -3.631505021476E-01  8.333333333333E-02
   7 T  13 AL    3.333333333333E-01 -3.333333333333E-01  1.842665775069E-02
   8 F  13 AL    0.000000000000E+00  2.468403515657E-17  1.482400089160E-01
   9 F  13 AL   -3.333333333333E-01  3.333333333333E-01 -1.842665775069E-02
  10 F  13 AL    0.000000000000E+00  0.000000000000E+00 -1.482400089160E-01

 T = ATOM BELONGING TO THE ASYMMETRIC UNIT

 TOTAL ENERGY(HF)(AU)(   3) -1.4004693432003E+03     DE (AU)   -1.220E-06

 UPDATED TRUST RADIUS     0.400E+01

 SYMMETRY ALLOWED FORCES  (COORDINATE, FORCE)

    1 -1.8555888E-05    2 -4.9636657E-05    3  1.4489591E-05    4  2.2660891E-05

 GRADIENT NORM     0.000059  GRADIENT THRESHOLD     0.500000

 EIGENVALUES OF THE ESTIMATED HESSIAN
  0.4739E-01  0.3095      0.5809      0.8524    

 PREDICTED ENERGY CHANGE    -0.633E-08

 MAX GRADIENT      0.000050  THRESHOLD              0.000450 CONVERGED YES
 RMS GRADIENT      0.000030  THRESHOLD              0.000300 CONVERGED YES
 MAX DISPLAC.      0.000348  THRESHOLD              0.001800 CONVERGED YES
 RMS DISPLAC.      0.000179  THRESHOLD              0.001200 CONVERGED YES

 CONVERGENCE TESTS SATISFIED AFTER  10 ENERGY AND GRADIENT CALCULATIONS
++++++++++++++++++++++++++++++++++++++++++++++++++++++++++++++++++++++
 FINALRUN OPTION: RE-STARTING OPTIMIZATION
++++++++++++++++++++++++++++++++++++++++++++++++++++++++++++++++++++++
 TTTTTTTTTTTTTTTTTTTTTTTTTTTTTT OPTI        TELAPSE      229.64 TCPU      228.56
 *******************************************************************************
 COORDINATE AND CELL OPTIMIZATION - POINT   11
 *******************************************************************************
 LATTICE PARAMETERS (ANGSTROMS AND DEGREES) - BOHR = 0.5291772083 ANGSTROM
 PRIMITIVE CELL - CENTRING CODE 7/0 VOLUME=    74.108157 - DENSITY  4.569 g/cm^3
         A              B              C           ALPHA      BETA       GAMMA 
     4.88587943     4.88587943     4.88587943    55.629078  55.629078  55.629078
 *******************************************************************************
 ATOMS IN THE ASYMMETRIC UNIT    2 - ATOMS IN THE UNIT CELL:   10
     ATOM              X/A                 Y/B                 Z/C    
 *******************************************************************************
   1 T   8 O    -4.464847892753E-01 -5.351521072468E-02  2.500000000000E-01
   2 F   8 O     2.500000000000E-01 -4.464847892753E-01 -5.351521072468E-02
   3 F   8 O    -5.351521072468E-02  2.500000000000E-01 -4.464847892753E-01
   4 F   8 O     4.464847892753E-01  5.351521072468E-02 -2.500000000000E-01
   5 F   8 O    -2.500000000000E-01  4.464847892753E-01  5.351521072468E-02
   6 F   8 O     5.351521072468E-02 -2.500000000000E-01  4.464847892753E-01
   7 T  13 AL    3.517582698870E-01  3.517582698870E-01  3.517582698870E-01
   8 F  13 AL    1.482417301130E-01  1.482417301130E-01  1.482417301130E-01
   9 F  13 AL   -3.517582698870E-01 -3.517582698870E-01 -3.517582698870E-01
  10 F  13 AL   -1.482417301130E-01 -1.482417301130E-01 -1.482417301130E-01

 TRANSFORMATION MATRIX PRIMITIVE-CRYSTALLOGRAPHIC CELL
  1.0000  0.0000  1.0000 -1.0000  1.0000  1.0000  0.0000 -1.0000  1.0000

 *******************************************************************************
 CRYSTALLOGRAPHIC CELL (VOLUME=        222.32446976)
         A              B              C           ALPHA      BETA       GAMMA 
     4.55961109     4.55961109    12.34812538    90.000000  90.000000 120.000000

 COORDINATES IN THE CRYSTALLOGRAPHIC CELL
     ATOM              X/A                 Y/B                 Z/C    
 *******************************************************************************
   1 T   8 O    -3.631514559420E-01 -3.333333333333E-01 -8.333333333333E-02
   2 F   8 O     3.333333333333E-01 -2.981812260865E-02 -8.333333333333E-02
   3 F   8 O     2.981812260865E-02  3.631514559420E-01 -8.333333333333E-02
   4 F   8 O     3.631514559420E-01  3.333333333333E-01  8.333333333333E-02
   5 F   8 O    -3.333333333333E-01  2.981812260865E-02  8.333333333333E-02
   6 F   8 O    -2.981812260865E-02 -3.631514559420E-01  8.333333333333E-02
   7 T  13 AL    3.333333333333E-01 -3.333333333333E-01  1.842493655369E-02
   8 F  13 AL    0.000000000000E+00  2.468403515657E-17  1.482417301130E-01
   9 F  13 AL   -3.333333333333E-01  3.333333333333E-01 -1.842493655369E-02
  10 F  13 AL    0.000000000000E+00  0.000000000000E+00 -1.482417301130E-01

 T = ATOM BELONGING TO THE ASYMMETRIC UNIT

 ENERGY DIFFERENCE WITH RESPECT TO FIRST CALCULATION USING
 THE PRESENT REFERENCE GEOMETRY:  1.220070316776E-06

 MAXIMUM ATOM DISPLACEMENT WITH RESPECT TO
 THE PRESENT REFERENCE GEOMETRY:   2.056063617931E-03

 REFERENCE GEOMETRY WILL BE CHANGED

 TOTAL ENERGY(HF)(AU)(  12) -1.4004693433700E+03     DE (AU)   -1.697E-07

 SYMMETRY ALLOWED FORCES  (COORDINATE, FORCE)

    1  2.2178959E-05    2  6.2582277E-05    3 -6.3745251E-06    4  6.3523044E-06

 GRADIENT NORM     0.000067  GRADIENT THRESHOLD     0.500000

 HESSIAN UPDATE SKIPPED

 EIGENVALUES OF THE ESTIMATED HESSIAN
  0.4739E-01  0.3095      0.5809      0.8524    

 PREDICTED ENERGY CHANGE    -0.713E-08

 MAX GRADIENT      0.000063  THRESHOLD              0.000450 CONVERGED YES
 RMS GRADIENT      0.000034  THRESHOLD              0.000300 CONVERGED YES
 MAX DISPLAC.      0.000281  THRESHOLD              0.001800 CONVERGED YES
 RMS DISPLAC.      0.000173  THRESHOLD              0.001200 CONVERGED YES

 CONVERGENCE TESTS SATISFIED AFTER  11 ENERGY AND GRADIENT CALCULATIONS

 ******************************************************************
 * OPT END - CONVERGED * E(AU):  -1.400469343370E+03  POINTS   11 *
 ******************************************************************

 EIGENVECTORS IN FORTRAN UNIT  8

 NEIGHBORS OF THE NON-EQUIVALENT ATOMS

 N = NUMBER OF NEIGHBORS AT DISTANCE R
    ATOM  N     R/ANG      R/AU   NEIGHBORS (ATOM LABELS AND CELL INDICES)
   1 O    2     1.7826     3.3686    9 AL   0 0 0   10 AL   0 0 0
   1 O    2     1.8692     3.5324    7 AL   0 0 0    8 AL  -1 0 0
   1 O    2     2.3970     4.5297    2 O   -1 1 0    3 O   -1 0 1
   1 O    2     2.4912     4.7077    4 O   -1 0 1    4 O   -1 0 0
   1 O    4     2.6020     4.9171    5 O    0 0 0    5 O    0-1 0    6 O    0 0 0
                                     6 O   -1 0 0
   1 O    4     2.7578     5.2115    2 O    0 0 0    2 O   -1 0 1    3 O    0 0 0
                                     3 O    0-1 1

   7 AL   3     1.7826     3.3686    4 O   -1 0 1    5 O    0 0 0    6 O   -1 1 0
   7 AL   3     1.8692     3.5324    1 O    0 0 0    2 O   -1 1 0    3 O   -1 0 1
   7 AL   1     2.5130     4.7490    8 AL  -1 0 0
   7 AL   3     2.6715     5.0485    9 AL   0 0 0    9 AL  -1 1 0    9 AL   0 1-1
   7 AL   3     3.0802     5.8207    4 O   -1 1 0    5 O   -1 0 1    6 O    0 0 0
   7 AL   3     3.0821     5.8244    8 AL   0 0 0    8 AL  -1 0 1    8 AL  -1 1 0


 FINAL OPTIMIZED GEOMETRY - DIMENSIONALITY OF THE SYSTEM      3
 (NON PERIODIC DIRECTION: LATTICE PARAMETER FORMALLY SET TO 500)
 *******************************************************************************
 LATTICE PARAMETERS (ANGSTROMS AND DEGREES) - BOHR = 0.5291772083 ANGSTROM
 PRIMITIVE CELL - CENTRING CODE 7/0 VOLUME=    74.108157 - DENSITY  4.569 g/cm^3
         A              B              C           ALPHA      BETA       GAMMA 
     4.88587943     4.88587943     4.88587943    55.629078  55.629078  55.629078
 *******************************************************************************
 ATOMS IN THE ASYMMETRIC UNIT    2 - ATOMS IN THE UNIT CELL:   10
     ATOM              X/A                 Y/B                 Z/C    
 *******************************************************************************
   1 T   8 O    -4.464847892753E-01 -5.351521072468E-02  2.500000000000E-01
   2 F   8 O     2.500000000000E-01 -4.464847892753E-01 -5.351521072468E-02
   3 F   8 O    -5.351521072468E-02  2.500000000000E-01 -4.464847892753E-01
   4 F   8 O     4.464847892753E-01  5.351521072468E-02 -2.500000000000E-01
   5 F   8 O    -2.500000000000E-01  4.464847892753E-01  5.351521072468E-02
   6 F   8 O     5.351521072468E-02 -2.500000000000E-01  4.464847892753E-01
   7 T  13 AL    3.517582698870E-01  3.517582698870E-01  3.517582698870E-01
   8 F  13 AL    1.482417301130E-01  1.482417301130E-01  1.482417301130E-01
   9 F  13 AL   -3.517582698870E-01 -3.517582698870E-01 -3.517582698870E-01
  10 F  13 AL   -1.482417301130E-01 -1.482417301130E-01 -1.482417301130E-01

 TRANSFORMATION MATRIX PRIMITIVE-CRYSTALLOGRAPHIC CELL
  1.0000  0.0000  1.0000 -1.0000  1.0000  1.0000  0.0000 -1.0000  1.0000

 *******************************************************************************
 CRYSTALLOGRAPHIC CELL (VOLUME=        222.32446976)
         A              B              C           ALPHA      BETA       GAMMA 
     4.55961109     4.55961109    12.34812538    90.000000  90.000000 120.000000

 COORDINATES IN THE CRYSTALLOGRAPHIC CELL
     ATOM              X/A                 Y/B                 Z/C    
 *******************************************************************************
   1 T   8 O    -3.631514559420E-01 -3.333333333333E-01 -8.333333333333E-02
   2 F   8 O     3.333333333333E-01 -2.981812260865E-02 -8.333333333333E-02
   3 F   8 O     2.981812260865E-02  3.631514559420E-01 -8.333333333333E-02
   4 F   8 O     3.631514559420E-01  3.333333333333E-01  8.333333333333E-02
   5 F   8 O    -3.333333333333E-01  2.981812260865E-02  8.333333333333E-02
   6 F   8 O    -2.981812260865E-02 -3.631514559420E-01  8.333333333333E-02
   7 T  13 AL    3.333333333333E-01 -3.333333333333E-01  1.842493655369E-02
   8 F  13 AL    0.000000000000E+00  2.468403515657E-17  1.482417301130E-01
   9 F  13 AL   -3.333333333333E-01  3.333333333333E-01 -1.842493655369E-02
  10 F  13 AL    0.000000000000E+00  0.000000000000E+00 -1.482417301130E-01

 T = ATOM BELONGING TO THE ASYMMETRIC UNIT
 INFORMATION **** fort.34 **** GEOMETRY OUTPUT FILE

 DIRECT LATTICE VECTORS CARTESIAN COMPONENTS (ANGSTROM)
          X                    Y                    Z
   0.263249269133E+01   0.000000000000E+00   0.411604179328E+01
  -0.131624634567E+01   0.227980554597E+01   0.411604179328E+01
  -0.131624634567E+01  -0.227980554597E+01   0.411604179328E+01


 CARTESIAN COORDINATES - PRIMITIVE CELL
 *******************************************************************************
 *      ATOM          X(ANGSTROM)         Y(ANGSTROM)         Z(ANGSTROM)
 *******************************************************************************
    1     8 O    -1.433990330421E+00 -6.919556606964E-01 -1.029010448319E+00
    2     8 O     1.316246345666E+00 -8.958942245773E-01 -1.029010448319E+00
    3     8 O     1.177439847548E-01  1.587849885274E+00 -1.029010448319E+00
    4     8 O     1.433990330421E+00  6.919556606964E-01  1.029010448319E+00
    5     8 O    -1.316246345666E+00  8.958942245773E-01  1.029010448319E+00
    6     8 O    -1.177439847548E-01 -1.587849885274E+00  1.029010448319E+00
    7    13 AL   -2.632492691332E+00  0.000000000000E+00  2.275134266803E-01
    8    13 AL    0.000000000000E+00  1.125496004937E-16  1.830507469957E+00
    9    13 AL   -1.316246345666E+00 -2.279805545970E+00 -2.275134266803E-01
   10    13 AL    0.000000000000E+00  0.000000000000E+00 -1.830507469957E+00

 ****   12 SYMMOPS - TRANSLATORS IN FRACTIONAL UNITS
 **** MATRICES AND TRANSLATORS IN THE CRYSTALLOGRAPHIC REFERENCE FRAME
   V INV                    ROTATION MATRICES                   TRANSLATORS
   1   1  1.00  0.00  0.00  0.00  1.00  0.00  0.00  0.00  1.00  0.00  0.00  0.00
   2   3  0.00  0.00  1.00  1.00  0.00  0.00  0.00  1.00  0.00  0.00  0.00  0.00
   3   2  0.00  1.00  0.00  0.00  0.00  1.00  1.00  0.00  0.00  0.00  0.00  0.00
   4   4  0.00 -1.00  0.00 -1.00  0.00  0.00  0.00  0.00 -1.00  0.50  0.50  0.50
   5   5 -1.00  0.00  0.00  0.00  0.00 -1.00  0.00 -1.00  0.00  0.50  0.50  0.50
   6   6  0.00  0.00 -1.00  0.00 -1.00  0.00 -1.00  0.00  0.00  0.50  0.50  0.50
   7   7 -1.00  0.00  0.00  0.00 -1.00  0.00  0.00  0.00 -1.00  0.00  0.00  0.00
   8   9  0.00  0.00 -1.00 -1.00  0.00  0.00  0.00 -1.00  0.00  0.00  0.00  0.00
   9   8  0.00 -1.00  0.00  0.00  0.00 -1.00 -1.00  0.00  0.00  0.00  0.00  0.00
  10  10  0.00  1.00  0.00  1.00  0.00  0.00  0.00  0.00  1.00  0.50  0.50  0.50
  11  11  1.00  0.00  0.00  0.00  0.00  1.00  0.00  1.00  0.00  0.50  0.50  0.50
  12  12  0.00  0.00  1.00  0.00  1.00  0.00  1.00  0.00  0.00  0.50  0.50  0.50
 TTTTTTTTTTTTTTTTTTTTTTTTTTTTTT END         TELAPSE      268.47 TCPU      267.38
 EEEEEEEEEE TERMINATION  DATE 20 11 2014 TIME 16:45:52.1
NODE    0 CPU TIME =       267.381
NODE    1 CPU TIME =       267.281
NODE    2 CPU TIME =       267.377
NODE    3 CPU TIME =       267.421
NODE    4 CPU TIME =       267.441
NODE    5 CPU TIME =       267.433
NODE    6 CPU TIME =       267.441
NODE    7 CPU TIME =       267.405
    TOTAL CPU TIME =      2139.178
Thu Nov 20 16:45:52 CET 2014
total 33652
-rw------- 1 agnes users    14575 Nov 20 16:45 FORCES.DAT
-rw------- 1 agnes users      340 Nov 20 16:45 HESSOPT.DAT
-rw-r----- 1 agnes users      223 Nov 20 16:41 INPUT
-rw------- 1 agnes users     2608 Nov 20 16:45 OPTINFO.DAT
-rwxr-x--- 1 agnes users 31487174 Nov 20 16:41 Pcrystal-87752
-rw------- 1 agnes users   110783 Nov 20 16:45 SCFOUT.LOG
-rw------- 1 agnes users        0 Nov 20 16:41 fort.1.pe0
-rw------- 1 agnes users        0 Nov 20 16:41 fort.1.pe1
-rw------- 1 agnes users        0 Nov 20 16:41 fort.1.pe2
-rw------- 1 agnes users        0 Nov 20 16:41 fort.1.pe3
-rw------- 1 agnes users        0 Nov 20 16:41 fort.1.pe4
-rw------- 1 agnes users        0 Nov 20 16:41 fort.1.pe5
-rw------- 1 agnes users        0 Nov 20 16:41 fort.1.pe6
-rw------- 1 agnes users        0 Nov 20 16:41 fort.1.pe7
-rw------- 1 agnes users    34864 Nov 20 16:45 fort.10.pe0
-rw------- 1 agnes users    21040 Nov 20 16:45 fort.10.pe1
-rw------- 1 agnes users     5592 Nov 20 16:45 fort.10.pe2
-rw------- 1 agnes users     4008 Nov 20 16:45 fort.10.pe3
-rw------- 1 agnes users    17048 Nov 20 16:45 fort.10.pe4
-rw------- 1 agnes users    19024 Nov 20 16:45 fort.10.pe5
-rw------- 1 agnes users    18088 Nov 20 16:45 fort.10.pe6
-rw------- 1 agnes users    35384 Nov 20 16:45 fort.10.pe7
-rw------- 1 agnes users    11544 Nov 20 16:45 fort.11.pe0
-rw------- 1 agnes users    11544 Nov 20 16:45 fort.11.pe1
-rw------- 1 agnes users    11544 Nov 20 16:45 fort.11.pe2
-rw------- 1 agnes users    11544 Nov 20 16:45 fort.11.pe3
-rw------- 1 agnes users    11544 Nov 20 16:45 fort.11.pe4
-rw------- 1 agnes users    11544 Nov 20 16:45 fort.11.pe5
-rw------- 1 agnes users    11544 Nov 20 16:45 fort.11.pe6
-rw------- 1 agnes users    11544 Nov 20 16:45 fort.11.pe7
-rw------- 1 agnes users   186088 Nov 20 16:44 fort.12
-rw------- 1 agnes users        0 Nov 20 16:41 fort.19.pe0
-rw------- 1 agnes users        0 Nov 20 16:41 fort.19.pe1
-rw------- 1 agnes users        0 Nov 20 16:41 fort.19.pe2
-rw------- 1 agnes users        0 Nov 20 16:41 fort.19.pe3
-rw------- 1 agnes users        0 Nov 20 16:41 fort.19.pe4
-rw------- 1 agnes users        0 Nov 20 16:41 fort.19.pe5
-rw------- 1 agnes users        0 Nov 20 16:41 fort.19.pe6
-rw------- 1 agnes users        0 Nov 20 16:41 fort.19.pe7
-rw------- 1 agnes users   368036 Nov 20 16:45 fort.20
-rw------- 1 agnes users        0 Nov 20 16:41 fort.28.pe0
-rw------- 1 agnes users        0 Nov 20 16:41 fort.28.pe1
-rw------- 1 agnes users        0 Nov 20 16:41 fort.28.pe2
-rw------- 1 agnes users        0 Nov 20 16:41 fort.28.pe3
-rw------- 1 agnes users        0 Nov 20 16:41 fort.28.pe4
-rw------- 1 agnes users        0 Nov 20 16:41 fort.28.pe5
-rw------- 1 agnes users        0 Nov 20 16:41 fort.28.pe6
-rw------- 1 agnes users        0 Nov 20 16:41 fort.28.pe7
-rw------- 1 agnes users        0 Nov 20 16:41 fort.29.pe0
-rw------- 1 agnes users        0 Nov 20 16:41 fort.29.pe1
-rw------- 1 agnes users        0 Nov 20 16:41 fort.29.pe2
-rw------- 1 agnes users        0 Nov 20 16:41 fort.29.pe3
-rw------- 1 agnes users        0 Nov 20 16:41 fort.29.pe4
-rw------- 1 agnes users        0 Nov 20 16:41 fort.29.pe5
-rw------- 1 agnes users        0 Nov 20 16:41 fort.29.pe6
-rw------- 1 agnes users        0 Nov 20 16:41 fort.29.pe7
-rw------- 1 agnes users        0 Nov 20 16:41 fort.3.pe0
-rw------- 1 agnes users        0 Nov 20 16:41 fort.3.pe1
-rw------- 1 agnes users        0 Nov 20 16:41 fort.3.pe2
-rw------- 1 agnes users        0 Nov 20 16:41 fort.3.pe3
-rw------- 1 agnes users        0 Nov 20 16:41 fort.3.pe4
-rw------- 1 agnes users        0 Nov 20 16:41 fort.3.pe5
-rw------- 1 agnes users        0 Nov 20 16:41 fort.3.pe6
-rw------- 1 agnes users        0 Nov 20 16:41 fort.3.pe7
-rw------- 1 agnes users     8661 Nov 20 16:45 fort.33
-rw------- 1 agnes users     3303 Nov 20 16:45 fort.34
-rw------- 1 agnes users        0 Nov 20 16:41 fort.38.pe0
-rw------- 1 agnes users        0 Nov 20 16:41 fort.38.pe1
-rw------- 1 agnes users        0 Nov 20 16:41 fort.38.pe2
-rw------- 1 agnes users        0 Nov 20 16:41 fort.38.pe3
-rw------- 1 agnes users        0 Nov 20 16:41 fort.38.pe4
-rw------- 1 agnes users        0 Nov 20 16:41 fort.38.pe5
-rw------- 1 agnes users        0 Nov 20 16:41 fort.38.pe6
-rw------- 1 agnes users        0 Nov 20 16:41 fort.38.pe7
-rw------- 1 agnes users        0 Nov 20 16:41 fort.40.pe0
-rw------- 1 agnes users        0 Nov 20 16:41 fort.40.pe1
-rw------- 1 agnes users        0 Nov 20 16:41 fort.40.pe2
-rw------- 1 agnes users        0 Nov 20 16:41 fort.40.pe3
-rw------- 1 agnes users        0 Nov 20 16:41 fort.40.pe4
-rw------- 1 agnes users        0 Nov 20 16:41 fort.40.pe5
-rw------- 1 agnes users        0 Nov 20 16:41 fort.40.pe6
-rw------- 1 agnes users        0 Nov 20 16:41 fort.40.pe7
-rw------- 1 agnes users        0 Nov 20 16:41 fort.61.pe0
-rw------- 1 agnes users        0 Nov 20 16:41 fort.61.pe1
-rw------- 1 agnes users     4272 Nov 20 16:45 fort.61.pe2
-rw------- 1 agnes users     6672 Nov 20 16:45 fort.61.pe3
-rw------- 1 agnes users     4968 Nov 20 16:45 fort.61.pe4
-rw------- 1 agnes users     4968 Nov 20 16:45 fort.61.pe5
-rw------- 1 agnes users     4640 Nov 20 16:45 fort.61.pe6
-rw------- 1 agnes users     6040 Nov 20 16:45 fort.61.pe7
-rw------- 1 agnes users     3648 Nov 20 16:45 fort.62.pe0
-rw------- 1 agnes users     3776 Nov 20 16:45 fort.62.pe1
-rw------- 1 agnes users     4544 Nov 20 16:45 fort.62.pe2
-rw------- 1 agnes users     2672 Nov 20 16:45 fort.62.pe3
-rw------- 1 agnes users     4368 Nov 20 16:45 fort.62.pe4
-rw------- 1 agnes users     3120 Nov 20 16:45 fort.62.pe5
-rw------- 1 agnes users     4384 Nov 20 16:45 fort.62.pe6
-rw------- 1 agnes users     4816 Nov 20 16:45 fort.62.pe7
-rw------- 1 agnes users    34864 Nov 20 16:45 fort.8.pe0
-rw------- 1 agnes users    21040 Nov 20 16:45 fort.8.pe1
-rw------- 1 agnes users     5592 Nov 20 16:45 fort.8.pe2
-rw------- 1 agnes users     4008 Nov 20 16:45 fort.8.pe3
-rw------- 1 agnes users    17048 Nov 20 16:45 fort.8.pe4
-rw------- 1 agnes users    19024 Nov 20 16:45 fort.8.pe5
-rw------- 1 agnes users    18088 Nov 20 16:45 fort.8.pe6
-rw------- 1 agnes users    35384 Nov 20 16:45 fort.8.pe7
-rw------- 1 agnes users        0 Nov 20 16:41 fort.82.pe0
-rw------- 1 agnes users        0 Nov 20 16:41 fort.82.pe1
-rw------- 1 agnes users        0 Nov 20 16:41 fort.82.pe2
-rw------- 1 agnes users        0 Nov 20 16:41 fort.82.pe3
-rw------- 1 agnes users        0 Nov 20 16:41 fort.82.pe4
-rw------- 1 agnes users        0 Nov 20 16:41 fort.82.pe5
-rw------- 1 agnes users        0 Nov 20 16:41 fort.82.pe6
-rw------- 1 agnes users        0 Nov 20 16:41 fort.82.pe7
-rw------- 1 agnes users        0 Nov 20 16:41 fort.83.pe0
-rw------- 1 agnes users        0 Nov 20 16:41 fort.83.pe1
-rw------- 1 agnes users        0 Nov 20 16:41 fort.83.pe2
-rw------- 1 agnes users        0 Nov 20 16:41 fort.83.pe3
-rw------- 1 agnes users        0 Nov 20 16:41 fort.83.pe4
-rw------- 1 agnes users        0 Nov 20 16:41 fort.83.pe5
-rw------- 1 agnes users        0 Nov 20 16:41 fort.83.pe6
-rw------- 1 agnes users        0 Nov 20 16:41 fort.83.pe7
-rw------- 1 agnes users   368036 Nov 20 16:45 fort.9
-rw------- 1 agnes users    41784 Nov 20 16:45 fort.95.pe0
-rw------- 1 agnes users    41784 Nov 20 16:45 fort.95.pe1
-rw------- 1 agnes users    41784 Nov 20 16:45 fort.95.pe2
-rw------- 1 agnes users    41784 Nov 20 16:45 fort.95.pe3
-rw------- 1 agnes users    41784 Nov 20 16:45 fort.95.pe4
-rw------- 1 agnes users    41784 Nov 20 16:45 fort.95.pe5
-rw------- 1 agnes users    41784 Nov 20 16:45 fort.95.pe6
-rw------- 1 agnes users    41784 Nov 20 16:45 fort.95.pe7
-rw------- 1 agnes users   934006 Nov 20 16:45 fort.98
-rw------- 1 agnes users     3303 Nov 20 16:41 optc001
-rw------- 1 agnes users     3303 Nov 20 16:42 optc002
-rw------- 1 agnes users     3303 Nov 20 16:42 optc003
-rw------- 1 agnes users     3303 Nov 20 16:42 optc004
-rw------- 1 agnes users     3303 Nov 20 16:43 optc005
-rw------- 1 agnes users     3303 Nov 20 16:43 optc006
-rw------- 1 agnes users     3303 Nov 20 16:43 optc007
-rw------- 1 agnes users     3303 Nov 20 16:44 optc008
-rw------- 1 agnes users     3303 Nov 20 16:44 optc009
-rw------- 1 agnes users     3303 Nov 20 16:45 optc010
-rw------- 1 agnes users     3303 Nov 20 16:45 optc011
