/home/test/bin/cry06_060822/bin/Linux-ifort-itanium_sgi_P/std/Pcrystal
/scratch/tmp_p24533
QUARTZ ALFA (init. geom.: expt.)  HF base 2d
CRYSTAL
0 0 2
154
0 0 16
4.91457896     5.40485895
2
14     4.705925485842E-01  7.248269291405E-17  0.000000000000E+00
 8     4.151440131428E-01  2.670973406544E-01  1.199927007933E-01
FREQCALC
END
END
14 6
2 0 6 2.0 1.0
2 1 6 8.0 1.0
2 1 2 4.0 1.0
0 1 1 0.0 1.0
0.09 1. 1.
0 3 1 0. 1.
2.56 1.
0 3 1 0. 1.
0.54 1.
8 5
0 0 6 2.0 1.0
0.5484671660D+04  0.1831074430D-02
0.8252349460D+03  0.1395017220D-01
0.1880469580D+03  0.6844507810D-01
0.5296450000D+02  0.2327143360D+00
0.1689757040D+02  0.4701928980D+00
0.5799635340D+01  0.3585208530D+00
0 1   3 6.0 1.00
0.1553961625D+02 -0.1107775490D+00  0.7087426820D-01
0.3599933586D+01 -0.1480262620D+00  0.3397528390D+00
0.1013761750D+01  0.1130767010D+01  0.7271585770D+00
0 1   1 0.0 1.00
0.29  0.1000000000D+01  0.1000000000D+01
0 3  1 0. 1.
2.00 1.
0 3  1 0. 1.
0.41 1.
99   0
END
SCFDIR
SHRINK
3 3
FMIXING
30
LEVSHIFT
4 1
TOLDEE
9
MAXCYCLE
200
END
Thu Aug 31 10:51:34 CEST 2006
 PROCESS            0  OF            8  WORKING
 PROCESS            7  OF            8  WORKING
 PROCESS            6  OF            8  WORKING

         
 *******************************************************************************
 *                                                                             *
 *                                CRYSTAL06                                    *
 *               Release : 1.0 - built  25 Aug 2006 13:02                      *
 *                              cry06_060822                                   *
 *                                                                             *
 *               Compiled on: clusgi                                           *
 *               Xmake: Linux-ifort-itanium_sgi_P                              *
 *                                                                             *
 *                              MAIN AUTHORS                                   *
 *                                                                             *
 *        R. DOVESI(1), V.R. SAUNDERS(2), C. ROETTI(1), R. ORLANDO (1,3),      *
 *     C.M. ZICOVICH-WILSON(1,4), F. PASCALE(5), B. CIVALLERI(1), K. DOLL(6),  *
 *        N.M. HARRISON(2,7), I. J. BUSH(2), Ph. D'ARCO(8), M. LLUNELL(9)      *
 *                                                                             *
 * (1) THEORETICAL CHEMISTRY GROUP - UNIVERSITA' DI TORINO - TORINO (ITALY)    *
 *      http://www.crystal.unito.it                                            *
 * (2) COMPUTATIONAL SCIENCE & ENGINEERING DEPARTMENT - CCLRC DARESBURY (UK)   *
 *     http://www.cse.clrc.ac.uk/cmg/CRYSTAL/                                  *
 * (3) UNIVERSITA' DEL PIEMONTE ORIENTALE - ALESSANDRIA (ITALY)                *
 * (4) UNIVERSIDAD AUTONOMA DEL ESTADO DE MORELOS - CUERNAVACA (MEXICO)        *
 * (5) UNIVERSITE' HENRI POINCARE' - NANCY (FRANCE)                            *
 * (6) TU BRAUNSCHWEIG - BRAUNSCHWEIG (GERMANY)                                *
 * (7) IMPERIAL COLLEGE - LONDON (UK)                                          *
 * (8) UNIVERSITE' PIERRE ET MARIE CURIE - PARIS (FRANCE)                      *
 * (9) UNIVERSIDAD DE BARCELONA - BARCELONA (SPAIN)                            *
 *******************************************************************************
 EEEEEEEEEE STARTING  DATE 31 08 2006 TIME 10:51:34.3
 QUARTZ ALFA (init. geom.: expt.)  HF base 2d                                    

 CRYSTAL CALCULATION
 (INPUT ACCORDING TO THE INTERNATIONAL TABLES FOR X-RAY CRYSTALLOGRAPHY)
 CRYSTAL FAMILY                       :  HEXAGONAL   
 CRYSTAL CLASS  (GROTH - 1921)        :  TRIGONAL TRAPEZOHEDRAL               

 SPACE GROUP (NONCENTROSYMMETRIC)     :  P 32 2 1        

 SHIFT OF THE ORIGIN                  :      0      0    2/3

 LATTICE PARAMETERS  (ANGSTROMS AND DEGREES) - CONVENTIONAL CELL
        A           B           C        ALPHA        BETA       GAMMA
     4.91458     4.91458     5.40486    90.00000    90.00000   120.00000


 NUMBER OF IRREDUCIBLE ATOMS IN THE CONVENTIONAL CELL:    2

 INPUT COORDINATES

 ATOM AT. N.              COORDINATES
   1  14     4.705925485842E-01  7.248269291405E-17  0.000000000000E+00
   2   8     4.151440131428E-01  2.670973406544E-01  1.199927007933E-01

 *******************************************************************************

 << INFORMATION >>: FROM NOW ON, ALL COORDINATES REFER TO THE PRIMITIVE CELL

 *******************************************************************************

 LATTICE PARAMETERS  (ANGSTROMS AND DEGREES) - PRIMITIVE CELL
       A          B          C         ALPHA     BETA     GAMMA        VOLUME
    4.91458    4.91458    5.40486    90.00000  90.00000 120.00000    113.054442

 COORDINATES OF THE EQUIVALENT ATOMS (FRACTIONARY UNITS)

 N. ATOM EQUIV AT. N.          X                  Y                  Z

   1   1   1   14 SI    4.70592548584E-01  7.24826929140E-17  0.00000000000E+00
   2   1   2   14 SI   -7.24826929140E-17  4.70592548584E-01 -3.33333333333E-01
   3   1   3   14 SI   -4.70592548584E-01 -4.70592548584E-01  3.33333333333E-01

   4   2   1    8 O     4.15144013143E-01  2.67097340654E-01  1.19992700793E-01
   5   2   2    8 O    -2.67097340654E-01  1.48046672488E-01 -2.13340632540E-01
   6   2   3    8 O    -1.48046672488E-01 -4.15144013143E-01  4.53326034127E-01
   7   2   4    8 O     1.48046672488E-01 -2.67097340654E-01 -1.19992700793E-01
   8   2   5    8 O    -4.15144013143E-01 -1.48046672488E-01  2.13340632540E-01
   9   2   6    8 O     2.67097340654E-01  4.15144013143E-01 -4.53326034127E-01

 NUMBER OF SYMMETRY OPERATORS         :    6
 *******************************************************************************
 * GEOMETRY EDITING - INPUT COORDINATES ARE GIVEN IN ANGSTROM          
 *******************************************************************************

 GEOMETRY NOW FULLY CONSISTENT WITH THE GROUP

 FRQFRQFRQFRQFRQFRQFRQFRQFRQFRQFRQFRQFRQFRQFRQFRQFRQFRQFRQFRQFRQFRQFRQFRQFRQFRQ

                       FREQUENCY CALCULATION


 GCALCO - MAX INDICES DIRECT LATTICE VECTOR  12  12   9
 NO.OF VECTORS CREATED 2999 STARS  182 RMAX    81.96205 BOHR

 GEOMETRY FOR WAVE FUNCTION - DIMENSIONALITY OF THE SYSTEM    3
 (NON PERIODIC DIRECTION: LATTICE PARAMETER FORMALLY SET TO 500)
 *******************************************************************************
 LATTICE PARAMETERS (ANGSTROMS AND DEGREES) - BOHR = 0.5291772083 ANGSTROM
 PRIMITIVE CELL - CENTRING CODE 1/0 VOLUME=   113.054442 - DENSITY 2.642 g/cm^3
         A              B              C           ALPHA      BETA       GAMMA 
     4.91457896     4.91457896     5.40485895    90.000000  90.000000 120.000000
 *******************************************************************************
 ATOMS IN THE ASYMMETRIC UNIT    2 - ATOMS IN THE UNIT CELL:    9
     ATOM              X/A                 Y/B                 Z/C    
 *******************************************************************************
   1 T  14 SI    4.705925485842E-01  5.508764154614E-17  0.000000000000E+00
   2 F  14 SI    0.000000000000E+00  4.705925485842E-01 -3.333333333333E-01
   3 F  14 SI   -4.705925485842E-01 -4.705925485842E-01  3.333333333333E-01
   4 T   8 O     4.151440131428E-01  2.670973406544E-01  1.199927007933E-01
   5 F   8 O    -2.670973406544E-01  1.480466724884E-01 -2.133406325400E-01
   6 F   8 O    -1.480466724884E-01 -4.151440131428E-01  4.533260341266E-01
   7 F   8 O     1.480466724884E-01 -2.670973406544E-01 -1.199927007933E-01
   8 F   8 O    -4.151440131428E-01 -1.480466724884E-01  2.133406325400E-01
   9 F   8 O     2.670973406544E-01  4.151440131428E-01 -4.533260341266E-01

 T = ATOM BELONGING TO THE ASYMMETRIC UNIT

 ****   6 SYMMOPS - TRANSLATORS IN FRACTIONARY UNITS
  V INV                   ROTATION MATRICES                       TRANSLATOR
  1  1  1.00  0.00  0.00  0.00  1.00  0.00  0.00  0.00  1.00    0.00  0.00  0.00
  2  3  0.00 -1.00  0.00  1.00 -1.00  0.00  0.00  0.00  1.00    0.00  0.00  0.67
  3  2 -1.00  1.00  0.00 -1.00  0.00  0.00  0.00  0.00  1.00    0.00  0.00  0.33
  4  4  1.00 -1.00  0.00  0.00 -1.00  0.00  0.00  0.00 -1.00    0.00  0.00  0.00
  5  5 -1.00  0.00  0.00 -1.00  1.00  0.00  0.00  0.00 -1.00    0.00  0.00  0.33
  6  6  0.00  1.00  0.00  1.00  0.00  0.00  0.00  0.00 -1.00    0.00  0.00  0.67

 DIRECT LATTICE VECTORS CARTESIAN COMPONENTS (ANGSTROM)
          X                    Y                    Z
   0.425615022826E+01  -0.245728948000E+01   0.000000000000E+00
   0.000000000000E+00   0.491457896000E+01   0.000000000000E+00
   0.000000000000E+00   0.000000000000E+00   0.540485895000E+01


 CARTESIAN COORDINATES - PRIMITIVE CELL
 *******************************************************************************
 *      ATOM          X(ANGSTROM)         Y(ANGSTROM)         Z(ANGSTROM)
 *******************************************************************************
   1    14 SI    2.002912583076E+00 -1.156382119002E+00  0.000000000000E+00
   2    14 SI    0.000000000000E+00  2.312764238005E+00 -1.801619650000E+00
   3    14 SI   -2.002912583076E+00 -1.156382119002E+00  1.801619650000E+00
   4     8 O     1.766915286300E+00  2.925419544713E-01  6.485436228173E-01
   5     8 O    -1.136806407395E+00  1.383922547036E+00 -1.153076027183E+00
   6     8 O    -6.301088789053E-01 -1.676464501507E+00  2.450163272817E+00
   7     8 O     6.301088789053E-01 -1.676464501507E+00 -6.485436228173E-01
   8     8 O    -1.766915286300E+00  2.925419544713E-01  1.153076027183E+00
   9     8 O     1.136806407395E+00  1.383922547036E+00 -2.450163272817E+00

 *******************************************************************************
 LOCAL ATOMIC FUNCTIONS BASIS SET
 *******************************************************************************
   ATOM  X(AU)  Y(AU)  Z(AU)    NO. TYPE  EXPONENT  S COEF   P COEF   D/F/G COEF
 *******************************************************************************
   1 SI  3.785 -2.185  0.000
                                  1 S  
                                         1.612E+04 1.959E-03 0.000E+00 0.000E+00
                                         2.426E+03 1.493E-02 0.000E+00 0.000E+00
                                         5.539E+02 7.285E-02 0.000E+00 0.000E+00
                                         1.563E+02 2.461E-01 0.000E+00 0.000E+00
                                         5.007E+01 4.859E-01 0.000E+00 0.000E+00
                                         1.702E+01 3.250E-01 0.000E+00 0.000E+00
                             2-   5 SP 
                                         2.927E+02-2.781E-03 4.438E-03 0.000E+00
                                         6.987E+01-3.571E-02 3.267E-02 0.000E+00
                                         2.234E+01-1.150E-01 1.347E-01 0.000E+00
                                         8.150E+00 9.356E-02 3.287E-01 0.000E+00
                                         3.135E+00 6.030E-01 4.496E-01 0.000E+00
                                         1.225E+00 4.190E-01 2.614E-01 0.000E+00
                             6-   9 SP 
                                         1.079E+00-3.761E-01 6.710E-02 0.000E+00
                                         3.024E-01 1.252E+00 9.569E-01 0.000E+00
                            10-  13 SP 
                                         9.000E-02 1.000E+00 1.000E+00 0.000E+00
                            14-  18 D  
                                         2.560E+00 0.000E+00 0.000E+00 1.000E+00
                            19-  23 D  
                                         5.400E-01 0.000E+00 0.000E+00 1.000E+00
   2 SI  0.000  4.370 -3.405
   3 SI -3.785 -2.185  3.405
   4 O   3.339  0.553  1.226
                                 70 S  
                                         5.485E+03 1.831E-03 0.000E+00 0.000E+00
                                         8.252E+02 1.395E-02 0.000E+00 0.000E+00
                                         1.880E+02 6.845E-02 0.000E+00 0.000E+00
                                         5.296E+01 2.327E-01 0.000E+00 0.000E+00
                                         1.690E+01 4.702E-01 0.000E+00 0.000E+00
                                         5.800E+00 3.585E-01 0.000E+00 0.000E+00
                            71-  74 SP 
                                         1.554E+01-1.108E-01 7.087E-02 0.000E+00
                                         3.600E+00-1.480E-01 3.398E-01 0.000E+00
                                         1.014E+00 1.131E+00 7.272E-01 0.000E+00
                            75-  78 SP 
                                         2.900E-01 1.000E+00 1.000E+00 0.000E+00
                            79-  83 D  
                                         2.000E+00 0.000E+00 0.000E+00 1.000E+00
                            84-  88 D  
                                         4.100E-01 0.000E+00 0.000E+00 1.000E+00
   5 O  -2.148  2.615 -2.179
   6 O  -1.191 -3.168  4.630
   7 O   1.191 -3.168 -1.226
   8 O  -3.339  0.553  2.179
   9 O   2.148  2.615 -4.630
 INFORMATION **** READM2 **** FULL DIRECT SCF (MONO AND BIEL INT) SELECTED
 INFORMATION **** TOLDEE **** SCF TOL ON TOTAL ENERGY SET TO         9
 INFORMATION **** MAXCYCLE **** MAX NUMBER OF SCF CYCLES SET TO       200
 *******************************************************************************
 N. OF ATOMS PER CELL        9  COULOMB OVERLAP TOL         (T1) 10** -6
 NUMBER OF SHELLS           48  COULOMB PENETRATION TOL     (T2) 10** -6
 NUMBER OF AO              183  EXCHANGE OVERLAP TOL        (T3) 10** -6
 N. OF ELECTRONS PER CELL   90  EXCHANGE PSEUDO OVP (F(G))  (T4) 10** -6
 CORE ELECTRONS PER CELL    42  EXCHANGE PSEUDO OVP (P(G))  (T5) 10**-12
 N. OF SYMMETRY OPERATORS    6  POLE ORDER IN MONO ZONE                4
 *******************************************************************************
 TYPE OF CALCULATION :  RESTRICTED CLOSED SHELL
 HARTREE-FOCK HAMILTONIAN
 EIGENVALUE LEVEL SHIFTING OF  0.400 HARTREE
 LOCKING - FERMI ENERGY ALTERED BY LEVEL SHIFTER
 *******************************************************************************
 MAX NUMBER OF SCF CYCLES     200  CONVERGENCE ON DELTAP        10**-19
 WEIGHT OF F(I) IN F(I+1)      30% CONVERGENCE ON ENERGY        10**- 9
 EIGENVALUE LEVEL SHIFTING OF  0.400 HARTREE
 LOCKING - FERMI ENERGY ALTERED BY LEVEL SHIFTER
 SHRINK. FACT.(MONKH.)    3  3  3  NUMBER OF K POINTS IN THE IBZ      7
 SHRINKING FACTOR(GILAT NET)    3  NUMBER OF K POINTS(GILAT NET)      7
 *******************************************************************************
 *** K POINTS COORDINATES (OBLIQUE COORDINATES IN UNITS OF IS =  3)
   1-R(  0  0  0)   2-C(  1  0  0)   3-C(  1  1  0)   4-C(  0  0  1)
   5-C(  1  0  1)   6-C(  2  0  1)   7-C(  1  1  1)

 DIRECT LATTICE VECTORS COMPON. (A.U.)     RECIP. LATTICE VECTORS COMPON. (A.U.) 
        X            Y            Z              X            Y            Z
    8.0429583   -4.6436041    0.0000000      0.7812033    0.0000000    0.0000000
    0.0000000    9.2872083    0.0000000      0.3906016    0.6765419    0.0000000
    0.0000000    0.0000000   10.2137032      0.0000000    0.0000000    0.6151721

 DISK SPACE FOR EIGENVECTORS (FTN 10)     435357 REALS

 SYMMETRY ADAPTION OF THE BLOCH FUNCTIONS ENABLED

 DIMENSIONS  P(G)=  300285 F(G)=   50868 P(G),F(G) (IRR)   27704
 MAX G-VECTOR INDEX FOR 1- AND 2-ELECTRON INTEGRALS 187

 TTTTTTTTTTTTTTTTTTTTTTTTTTTTTT INPUT       TELAPSE        0.04 TCPU        0.02

 NEIGHBORS OF THE NON-EQUIVALENT ATOMS

 N = NUMBER OF NEIGHBORS AT DISTANCE R
    ATOM  N     R/ANG      R/AU   NEIGHBORS (ATOM LABELS AND CELL INDICES)
   1 SI   2     1.6049     3.0328   4 O    0 0 0   7 O    0 0 0
   1 SI   2     1.6071     3.0371   5 O    1 0 0   8 O    1 0 0
   1 SI   4     3.0572     5.7774   2 SI   1 0 0   2 SI   0-1 0   3 SI   1 1 0
                                    3 SI   1 0 0
   1 SI   2     3.5200     6.6519   6 O    1 1 0   9 O    0-1 0
   1 SI   2     3.5337     6.6777   4 O    0-1 0   7 O    1 1 0
   1 SI   2     3.6341     6.8674   6 O    0 0 0   9 O    0 0 0

   4 O    1     1.6049     3.0328   1 SI   0 0 0
   4 O    1     1.6071     3.0371   3 SI   1 1 0
   4 O    2     2.6105     4.9331   8 O    1 1 0   8 O    1 0 0
   4 O    1     2.6176     4.9465   7 O    0 0 0
   4 O    1     2.6280     4.9662   9 O    0 0 1
   4 O    2     2.6345     4.9785   5 O    1 0 0   6 O    1 1 0


 SYMMETRY ALLOWED INTERNAL DEGREE(S) OF FREEDOM:   4
 PROCESS            1  OF            8  WORKING
 PROCESS            2  OF            8  WORKING
 PROCESS            3  OF            8  WORKING
 PROCESS            4  OF            8  WORKING
 PROCESS            5  OF            8  WORKING
 TTTTTTTTTTTTTTTTTTTTTTTTTTTTTT SYMM        TELAPSE        0.05 TCPU        0.03

 *******************************************************************************
 *                                                                             *
 *                                                                             *
 *         FFFFF  RRRR   EEEE   EEE   U   U  EEEE  N   N   CCC  Y   Y          *
 *         F      R   R  E     E   E  U   U  E     NN  N  C      Y Y           *
 *         FFF    RRRR   EEEE  E   E  U   U  EEEE  N N N  C       Y            *
 *         F      R   R  E     E  EE  U   U  E     N  NN  C       Y            *
 *         F      R   R  EEEE   EE E   UUU   EEEE  N   N   CCC    Y            *
 *                                                                             *
 *                                                                             *
 * CALCULATION OF PHONON FREQUENCIES AT THE GAMMA POINT.                       *
 *                                                                             *
 * SYMMETRY IS EXPLOITED TO BUILD THE TOTAL HESSIAN MATRIX.                    *
 * (F. PASCALE PHD THESIS TURIN-PARIS 2002)                                    *
 *                                                                             *
 *******************************************************************************
 *                                                                             *
 * REFERENCES TO BE QUOTED WHEN USING THIS MODULE:                             *
 *                                                                             *
 * F. Pascale, C.M. Zicovich-Wilson, F. Lopez, B. Civalleri                    *
 * R. Orlando, R. Dovesi                                                       *
 * The calculation of the vibration frequencies of crystalline                 *
 * compounds and its implementation in the CRYSTAL code                        *
 * J. Comput. Chem. 25 (2004) 888-897                                          *
 *                                                                             *
 * C.M. Zicovich-Wilson, F. Pascale, C. Roetti, V.R. Saunders,                 *
 * R. Orlando, R. Dovesi                                                       *
 * The calculation of the vibration frequencies of alpha-quartz:               *
 * the effect of hamiltonian and basis set                                     *
 * J. Comput. Chem. 25 (2004) 1873-1881                                        *
 *******************************************************************************



 ATOMS ISOTOPIC MASS (AMU) FOR FREQUENCY CALCULATION 

    1 SI  27.976930    2 SI  27.976930    3 SI  27.976930    4 O   15.994910
    5 O   15.994910    6 O   15.994910    7 O   15.994910    8 O   15.994910
    9 O   15.994910

 STEP SIZE                  0.0010
 USE OF RESIDUAL SYMMETRY AFTER DISPLACEMENT

 NUMERICAL GRADIENT COMPUTED WITH DIFFERENT QUOTIENT FORMULA
 NUMBER OF IRREDUCIBLE ATOMS                     2
 NUMBER OF SCF+GRADIENT CALCULATIONS             6

  ATOM  SYMOP  ORDER
    1      2      2
    4      1      1

 ATOM  : IRREDUCIBLE ATOM
 SYMOP : NUMBER OF SYMMETRY OPERATORS THAT DOESN'T MOVE THE IRREDUCIBLE ATOM
 ORDER : MAXIMUM ORDER AMONG THE OPERATORS OF THE IRREDUCIBLE ATOM

 *******************************************************************************


 GCALCO - MAX INDICES DIRECT LATTICE VECTOR  12  12   9
 NO.OF VECTORS CREATED 2999 STARS  182 RMAX    81.96205 BOHR

 DIMENSIONS  P(G)=  300285 F(G)=   50868 P(G),F(G) (IRR)   27704
 MAX G-VECTOR INDEX FOR 1- AND 2-ELECTRON INTEGRALS 187

 TTTTTTTTTTTTTTTTTTTTTTTTTTTTTT INPUT       TELAPSE        0.09 TCPU        0.04

 SYMMETRY ALLOWED INTERNAL DEGREE(S) OF FREEDOM:   4
 TTTTTTTTTTTTTTTTTTTTTTTTTTTTTT SYMM        TELAPSE        0.10 TCPU        0.05
 INFORMATION **** EXCBUF **** EXCH. BIPO BUFFER: WORDS USED =    360000
 WARNING **** EXCBUF **** EXCH. BIPO BUFFER TOO SMALL - TO AVOID I/O SET EXCHSIZE =    916110

 *******************************************************************************
 QUARTZ ALFA (init. geom.: expt.)  HF base 2d                                    
 CRYSTAL - SCF - TYPE OF CALCULATION :  RESTRICTED CLOSED SHELL
 *******************************************************************************
 TTTTTTTTTTTTTTTTTTTTTTTTTTTTTT SDIK        TELAPSE        0.32 TCPU        0.27

 AAAAAAAAAAAAAAAAAAAAAAAAAAAAAAAAAAAAAAAAAAAAAAAAAAAAAAAAAAAAAAAAAAAAAAAAAAAAAAA
         ATOMIC WAVEFUNCTION(S)


 NUCLEAR CHARGE 14.0  SYMMETRY SPECIES            S    P
 N. ELECTRONS   14.0  NUMBER OF PRIMITIVE GTOS   15    9
                      NUMBER OF CONTRACTED GTOS   4    3
                      NUMBER OF CLOSED SHELLS     3    1
                      OPEN SHELL OCCUPATION       0    2

  ZNUC SCFIT  TOTAL HF ENERGY   KINETIC ENERGY   VIRIAL THEOREM ACCURACY
  14.0  11   -2.888251470E+02  2.888201519E+02 -2.000017295E+00  3.5E-06

 NUCLEAR CHARGE  8.0  SYMMETRY SPECIES            S    P
 N. ELECTRONS    8.0  NUMBER OF PRIMITIVE GTOS   10    4
                      NUMBER OF CONTRACTED GTOS   3    2
                      NUMBER OF CLOSED SHELLS     2    0
                      OPEN SHELL OCCUPATION       0    4

  ZNUC SCFIT  TOTAL HF ENERGY   KINETIC ENERGY   VIRIAL THEOREM ACCURACY
   8.0  12   -7.477553241E+01  7.466605824E+01 -2.001466184E+00  1.9E-06

 AAAAAAAAAAAAAAAAAAAAAAAAAAAAAAAAAAAAAAAAAAAAAAAAAAAAAAAAAAAAAAAAAAAAAAAAAAAAAAA

 CHARGE NORMALIZATION FACTOR   1.00000000
 TTTTTTTTTTTTTTTTTTTTTTTTTTTTTT MOQGAD      TELAPSE        0.38 TCPU        0.33
 TTTTTTTTTTTTTTTTTTTTTTTTTTTTTT SHELLX      TELAPSE       17.24 TCPU       17.19
 TTTTTTTTTTTTTTTTTTTTTTTTTTTTTT MONMO3      TELAPSE       22.76 TCPU       22.71
 CYC   0 ETOT(AU) -1.319370012173E+03 DETOT -1.32E+03 tst  0.00E+00 PX  1.00E+00
 TTTTTTTTTTTTTTTTTTTTTTTTTTTTTT FDIK        TELAPSE       23.21 TCPU       23.16
 INSULATING STATE - TOP OF VALENCE BANDS (A.U.) -4.7755174E-01
 TTTTTTTTTTTTTTTTTTTTTTTTTTTTTT PDIG        TELAPSE       23.28 TCPU       23.23
 CHARGE NORMALIZATION FACTOR   1.00000000
 TTTTTTTTTTTTTTTTTTTTTTTTTTTTTT MOQGAD      TELAPSE       23.32 TCPU       23.27
 TTTTTTTTTTTTTTTTTTTTTTTTTTTTTT SHELLX      TELAPSE       41.19 TCPU       41.14
 TTTTTTTTTTTTTTTTTTTTTTTTTTTTTT MONMO3      TELAPSE       46.82 TCPU       46.77
 CYC   1 ETOT(AU) -1.316548634806E+03 DETOT  2.82E+00 tst  0.00E+00 PX  1.00E+00
 TTTTTTTTTTTTTTTTTTTTTTTTTTTTTT FDIK        TELAPSE       47.00 TCPU       46.95
 INSULATING STATE - TOP OF VALENCE BANDS (A.U.) -8.1924915E-01
 TTTTTTTTTTTTTTTTTTTTTTTTTTTTTT PDIG        TELAPSE       47.06 TCPU       47.02
 CHARGE NORMALIZATION FACTOR   1.00000000
 TTTTTTTTTTTTTTTTTTTTTTTTTTTTTT MOQGAD      TELAPSE       47.11 TCPU       47.06
 TTTTTTTTTTTTTTTTTTTTTTTTTTTTTT SHELLX      TELAPSE       65.00 TCPU       64.95
 TTTTTTTTTTTTTTTTTTTTTTTTTTTTTT MONMO3      TELAPSE       70.55 TCPU       70.50
 CYC   2 ETOT(AU) -1.316681380518E+03 DETOT -1.33E-01 tst  1.42E-03 PX  6.51E-02
 TTTTTTTTTTTTTTTTTTTTTTTTTTTTTT FDIK        TELAPSE       70.72 TCPU       70.67
 INSULATING STATE - TOP OF VALENCE BANDS (A.U.) -8.3717140E-01
 TTTTTTTTTTTTTTTTTTTTTTTTTTTTTT PDIG        TELAPSE       70.79 TCPU       70.74
 CHARGE NORMALIZATION FACTOR   1.00000000
 TTTTTTTTTTTTTTTTTTTTTTTTTTTTTT MOQGAD      TELAPSE       70.84 TCPU       70.79
 TTTTTTTTTTTTTTTTTTTTTTTTTTTTTT SHELLX      TELAPSE       88.72 TCPU       88.68
 TTTTTTTTTTTTTTTTTTTTTTTTTTTTTT MONMO3      TELAPSE       94.26 TCPU       94.22
 CYC   3 ETOT(AU) -1.316697056125E+03 DETOT -1.57E-02 tst  1.11E-03 PX  2.09E-02
 TTTTTTTTTTTTTTTTTTTTTTTTTTTTTT FDIK        TELAPSE       94.41 TCPU       94.37
 INSULATING STATE - TOP OF VALENCE BANDS (A.U.) -8.4627264E-01
 TTTTTTTTTTTTTTTTTTTTTTTTTTTTTT PDIG        TELAPSE       94.48 TCPU       94.44
 CHARGE NORMALIZATION FACTOR   1.00000000
 TTTTTTTTTTTTTTTTTTTTTTTTTTTTTT MOQGAD      TELAPSE       94.53 TCPU       94.48
 TTTTTTTTTTTTTTTTTTTTTTTTTTTTTT SHELLX      TELAPSE      112.42 TCPU      112.37
 TTTTTTTTTTTTTTTTTTTTTTTTTTTTTT MONMO3      TELAPSE      117.97 TCPU      117.93
 CYC   4 ETOT(AU) -1.316701105466E+03 DETOT -4.05E-03 tst  3.74E-04 PX  1.25E-02
 TTTTTTTTTTTTTTTTTTTTTTTTTTTTTT FDIK        TELAPSE      118.13 TCPU      118.09
 INSULATING STATE - TOP OF VALENCE BANDS (A.U.) -8.4679746E-01
 TTTTTTTTTTTTTTTTTTTTTTTTTTTTTT PDIG        TELAPSE      118.20 TCPU      118.16
 CHARGE NORMALIZATION FACTOR   1.00000000
 TTTTTTTTTTTTTTTTTTTTTTTTTTTTTT MOQGAD      TELAPSE      118.25 TCPU      118.21
 TTTTTTTTTTTTTTTTTTTTTTTTTTTTTT SHELLX      TELAPSE      136.14 TCPU      136.10
 TTTTTTTTTTTTTTTTTTTTTTTTTTTTTT MONMO3      TELAPSE      141.68 TCPU      141.64
 CYC   5 ETOT(AU) -1.316702255425E+03 DETOT -1.15E-03 tst  8.57E-05 PX  7.05E-03
 TTTTTTTTTTTTTTTTTTTTTTTTTTTTTT FDIK        TELAPSE      141.84 TCPU      141.80
 INSULATING STATE - TOP OF VALENCE BANDS (A.U.) -8.4591417E-01
 TTTTTTTTTTTTTTTTTTTTTTTTTTTTTT PDIG        TELAPSE      141.91 TCPU      141.87
 CHARGE NORMALIZATION FACTOR   1.00000000
 TTTTTTTTTTTTTTTTTTTTTTTTTTTTTT MOQGAD      TELAPSE      141.95 TCPU      141.91
 TTTTTTTTTTTTTTTTTTTTTTTTTTTTTT SHELLX      TELAPSE      159.84 TCPU      159.80
 TTTTTTTTTTTTTTTTTTTTTTTTTTTTTT MONMO3      TELAPSE      165.39 TCPU      165.35
 CYC   6 ETOT(AU) -1.316702603014E+03 DETOT -3.48E-04 tst  1.82E-05 PX  3.95E-03
 TTTTTTTTTTTTTTTTTTTTTTTTTTTTTT FDIK        TELAPSE      165.55 TCPU      165.51
 INSULATING STATE - TOP OF VALENCE BANDS (A.U.) -8.4539973E-01
 TTTTTTTTTTTTTTTTTTTTTTTTTTTTTT PDIG        TELAPSE      165.62 TCPU      165.58
 CHARGE NORMALIZATION FACTOR   1.00000000
 TTTTTTTTTTTTTTTTTTTTTTTTTTTTTT MOQGAD      TELAPSE      165.66 TCPU      165.63
 TTTTTTTTTTTTTTTTTTTTTTTTTTTTTT SHELLX      TELAPSE      183.56 TCPU      183.52
 TTTTTTTTTTTTTTTTTTTTTTTTTTTTTT MONMO3      TELAPSE      189.10 TCPU      189.06
 CYC   7 ETOT(AU) -1.316702723790E+03 DETOT -1.21E-04 tst  4.44E-06 PX  2.25E-03
 TTTTTTTTTTTTTTTTTTTTTTTTTTTTTT FDIK        TELAPSE      189.26 TCPU      189.22
 INSULATING STATE - TOP OF VALENCE BANDS (A.U.) -8.4518475E-01
 TTTTTTTTTTTTTTTTTTTTTTTTTTTTTT PDIG        TELAPSE      189.32 TCPU      189.29
 CHARGE NORMALIZATION FACTOR   1.00000000
 TTTTTTTTTTTTTTTTTTTTTTTTTTTTTT MOQGAD      TELAPSE      189.37 TCPU      189.33
 TTTTTTTTTTTTTTTTTTTTTTTTTTTTTT SHELLX      TELAPSE      207.26 TCPU      207.22
 TTTTTTTTTTTTTTTTTTTTTTTTTTTTTT MONMO3      TELAPSE      212.82 TCPU      212.78
 CYC   8 ETOT(AU) -1.316702771049E+03 DETOT -4.73E-05 tst  2.01E-06 PX  1.43E-03
 TTTTTTTTTTTTTTTTTTTTTTTTTTTTTT FDIK        TELAPSE      212.98 TCPU      212.94
 INSULATING STATE - TOP OF VALENCE BANDS (A.U.) -8.4509746E-01
 TTTTTTTTTTTTTTTTTTTTTTTTTTTTTT PDIG        TELAPSE      213.05 TCPU      213.01
 CHARGE NORMALIZATION FACTOR   1.00000000
 TTTTTTTTTTTTTTTTTTTTTTTTTTTTTT MOQGAD      TELAPSE      213.09 TCPU      213.06
 TTTTTTTTTTTTTTTTTTTTTTTTTTTTTT SHELLX      TELAPSE      230.98 TCPU      230.95
 TTTTTTTTTTTTTTTTTTTTTTTTTTTTTT MONMO3      TELAPSE      236.52 TCPU      236.48
 CYC   9 ETOT(AU) -1.316702791751E+03 DETOT -2.07E-05 tst  9.37E-07 PX  1.29E-03
 TTTTTTTTTTTTTTTTTTTTTTTTTTTTTT FDIK        TELAPSE      236.68 TCPU      236.64
 INSULATING STATE - TOP OF VALENCE BANDS (A.U.) -8.4506442E-01
 TTTTTTTTTTTTTTTTTTTTTTTTTTTTTT PDIG        TELAPSE      236.75 TCPU      236.71
 CHARGE NORMALIZATION FACTOR   1.00000000
 TTTTTTTTTTTTTTTTTTTTTTTTTTTTTT MOQGAD      TELAPSE      236.79 TCPU      236.76
 TTTTTTTTTTTTTTTTTTTTTTTTTTTTTT SHELLX      TELAPSE      254.68 TCPU      254.65
 TTTTTTTTTTTTTTTTTTTTTTTTTTTTTT MONMO3      TELAPSE      260.23 TCPU      260.20
 CYC  10 ETOT(AU) -1.316702801482E+03 DETOT -9.73E-06 tst  4.49E-07 PX  1.16E-03
 TTTTTTTTTTTTTTTTTTTTTTTTTTTTTT FDIK        TELAPSE      260.39 TCPU      260.36
 INSULATING STATE - TOP OF VALENCE BANDS (A.U.) -8.4505557E-01
 TTTTTTTTTTTTTTTTTTTTTTTTTTTTTT PDIG        TELAPSE      260.46 TCPU      260.42
 CHARGE NORMALIZATION FACTOR   1.00000000
 TTTTTTTTTTTTTTTTTTTTTTTTTTTTTT MOQGAD      TELAPSE      260.50 TCPU      260.47
 TTTTTTTTTTTTTTTTTTTTTTTTTTTTTT SHELLX      TELAPSE      278.39 TCPU      278.36
 TTTTTTTTTTTTTTTTTTTTTTTTTTTTTT MONMO3      TELAPSE      283.93 TCPU      283.90
 CYC  11 ETOT(AU) -1.316702806224E+03 DETOT -4.74E-06 tst  2.21E-07 PX  1.05E-03
 TTTTTTTTTTTTTTTTTTTTTTTTTTTTTT FDIK        TELAPSE      284.09 TCPU      284.06
 INSULATING STATE - TOP OF VALENCE BANDS (A.U.) -8.4505682E-01
 TTTTTTTTTTTTTTTTTTTTTTTTTTTTTT PDIG        TELAPSE      284.16 TCPU      284.13
 CHARGE NORMALIZATION FACTOR   1.00000000
 TTTTTTTTTTTTTTTTTTTTTTTTTTTTTT MOQGAD      TELAPSE      284.21 TCPU      284.18
 TTTTTTTTTTTTTTTTTTTTTTTTTTTTTT SHELLX      TELAPSE      302.10 TCPU      302.07
 TTTTTTTTTTTTTTTTTTTTTTTTTTTTTT MONMO3      TELAPSE      307.64 TCPU      307.61
 CYC  12 ETOT(AU) -1.316702808452E+03 DETOT -2.23E-06 tst  1.30E-07 PX  9.52E-04
 TTTTTTTTTTTTTTTTTTTTTTTTTTTTTT FDIK        TELAPSE      307.80 TCPU      307.77
 INSULATING STATE - TOP OF VALENCE BANDS (A.U.) -8.4506138E-01
 TTTTTTTTTTTTTTTTTTTTTTTTTTTTTT PDIG        TELAPSE      307.86 TCPU      307.84
 CHARGE NORMALIZATION FACTOR   1.00000000
 TTTTTTTTTTTTTTTTTTTTTTTTTTTTTT MOQGAD      TELAPSE      307.91 TCPU      307.88
 TTTTTTTTTTTTTTTTTTTTTTTTTTTTTT SHELLX      TELAPSE      325.80 TCPU      325.78
 TTTTTTTTTTTTTTTTTTTTTTTTTTTTTT MONMO3      TELAPSE      331.35 TCPU      331.32
 CYC  13 ETOT(AU) -1.316702809370E+03 DETOT -9.18E-07 tst  9.14E-08 PX  8.63E-04
 TTTTTTTTTTTTTTTTTTTTTTTTTTTTTT FDIK        TELAPSE      331.50 TCPU      331.48
 INSULATING STATE - TOP OF VALENCE BANDS (A.U.) -8.4506650E-01
 TTTTTTTTTTTTTTTTTTTTTTTTTTTTTT PDIG        TELAPSE      331.57 TCPU      331.55
 CHARGE NORMALIZATION FACTOR   1.00000000
 TTTTTTTTTTTTTTTTTTTTTTTTTTTTTT MOQGAD      TELAPSE      331.62 TCPU      331.60
 TTTTTTTTTTTTTTTTTTTTTTTTTTTTTT SHELLX      TELAPSE      349.51 TCPU      349.49
 TTTTTTTTTTTTTTTTTTTTTTTTTTTTTT MONMO3      TELAPSE      355.07 TCPU      355.04
 CYC  14 ETOT(AU) -1.316702809564E+03 DETOT -1.93E-07 tst  6.55E-08 PX  7.82E-04
 TTTTTTTTTTTTTTTTTTTTTTTTTTTTTT FDIK        TELAPSE      355.22 TCPU      355.20
 INSULATING STATE - TOP OF VALENCE BANDS (A.U.) -8.4507123E-01
 TTTTTTTTTTTTTTTTTTTTTTTTTTTTTT PDIG        TELAPSE      355.29 TCPU      355.27
 CHARGE NORMALIZATION FACTOR   1.00000000
 TTTTTTTTTTTTTTTTTTTTTTTTTTTTTT MOQGAD      TELAPSE      355.34 TCPU      355.31
 TTTTTTTTTTTTTTTTTTTTTTTTTTTTTT SHELLX      TELAPSE      373.23 TCPU      373.21
 TTTTTTTTTTTTTTTTTTTTTTTTTTTTTT MONMO3      TELAPSE      378.76 TCPU      378.74
 CYC  15 ETOT(AU) -1.316702809380E+03 DETOT  1.84E-07 tst  4.76E-08 PX  7.09E-04
 TTTTTTTTTTTTTTTTTTTTTTTTTTTTTT FDIK        TELAPSE      378.92 TCPU      378.90
 INSULATING STATE - TOP OF VALENCE BANDS (A.U.) -8.4507531E-01
 TTTTTTTTTTTTTTTTTTTTTTTTTTTTTT PDIG        TELAPSE      378.99 TCPU      378.97
 CHARGE NORMALIZATION FACTOR   1.00000000
 TTTTTTTTTTTTTTTTTTTTTTTTTTTTTT MOQGAD      TELAPSE      379.04 TCPU      379.01
 TTTTTTTTTTTTTTTTTTTTTTTTTTTTTT SHELLX      TELAPSE      396.93 TCPU      396.91
 TTTTTTTTTTTTTTTTTTTTTTTTTTTTTT MONMO3      TELAPSE      402.48 TCPU      402.46
 CYC  16 ETOT(AU) -1.316702808999E+03 DETOT  3.81E-07 tst  3.50E-08 PX  6.43E-04
 TTTTTTTTTTTTTTTTTTTTTTTTTTTTTT FDIK        TELAPSE      402.64 TCPU      402.62
 INSULATING STATE - TOP OF VALENCE BANDS (A.U.) -8.4507874E-01
 TTTTTTTTTTTTTTTTTTTTTTTTTTTTTT PDIG        TELAPSE      402.71 TCPU      402.69
 CHARGE NORMALIZATION FACTOR   1.00000000
 TTTTTTTTTTTTTTTTTTTTTTTTTTTTTT MOQGAD      TELAPSE      402.75 TCPU      402.73
 TTTTTTTTTTTTTTTTTTTTTTTTTTTTTT SHELLX      TELAPSE      420.64 TCPU      420.62
 TTTTTTTTTTTTTTTTTTTTTTTTTTTTTT MONMO3      TELAPSE      426.23 TCPU      426.16
 CYC  17 ETOT(AU) -1.316702808509E+03 DETOT  4.90E-07 tst  2.71E-08 PX  5.84E-04
 TTTTTTTTTTTTTTTTTTTTTTTTTTTTTT FDIK        TELAPSE      426.39 TCPU      426.32
 INSULATING STATE - TOP OF VALENCE BANDS (A.U.) -8.4508165E-01
 TTTTTTTTTTTTTTTTTTTTTTTTTTTTTT PDIG        TELAPSE      426.45 TCPU      426.39
 CHARGE NORMALIZATION FACTOR   1.00000000
 TTTTTTTTTTTTTTTTTTTTTTTTTTTTTT MOQGAD      TELAPSE      426.50 TCPU      426.43
 TTTTTTTTTTTTTTTTTTTTTTTTTTTTTT SHELLX      TELAPSE      444.40 TCPU      444.33
 TTTTTTTTTTTTTTTTTTTTTTTTTTTTTT MONMO3      TELAPSE      449.85 TCPU      449.79
 CYC  18 ETOT(AU) -1.316702807987E+03 DETOT  5.22E-07 tst  2.20E-08 PX  5.30E-04
 TTTTTTTTTTTTTTTTTTTTTTTTTTTTTT FDIK        TELAPSE      450.01 TCPU      449.95
 INSULATING STATE - TOP OF VALENCE BANDS (A.U.) -8.4508414E-01
 TTTTTTTTTTTTTTTTTTTTTTTTTTTTTT PDIG        TELAPSE      450.08 TCPU      450.02
 CHARGE NORMALIZATION FACTOR   1.00000000
 TTTTTTTTTTTTTTTTTTTTTTTTTTTTTT MOQGAD      TELAPSE      450.13 TCPU      450.06
 TTTTTTTTTTTTTTTTTTTTTTTTTTTTTT SHELLX      TELAPSE      468.02 TCPU      467.95
 TTTTTTTTTTTTTTTTTTTTTTTTTTTTTT MONMO3      TELAPSE      473.48 TCPU      473.41
 CYC  19 ETOT(AU) -1.316702807444E+03 DETOT  5.44E-07 tst  1.79E-08 PX  4.82E-04
 TTTTTTTTTTTTTTTTTTTTTTTTTTTTTT FDIK        TELAPSE      473.64 TCPU      473.57
 INSULATING STATE - TOP OF VALENCE BANDS (A.U.) -8.4508628E-01
 TTTTTTTTTTTTTTTTTTTTTTTTTTTTTT PDIG        TELAPSE      473.71 TCPU      473.64
 CHARGE NORMALIZATION FACTOR   1.00000000
 TTTTTTTTTTTTTTTTTTTTTTTTTTTTTT MOQGAD      TELAPSE      473.75 TCPU      473.69
 TTTTTTTTTTTTTTTTTTTTTTTTTTTTTT SHELLX      TELAPSE      491.64 TCPU      491.58
 TTTTTTTTTTTTTTTTTTTTTTTTTTTTTT MONMO3      TELAPSE      497.11 TCPU      497.04
 CYC  20 ETOT(AU) -1.316702806935E+03 DETOT  5.09E-07 tst  1.46E-08 PX  4.38E-04
 TTTTTTTTTTTTTTTTTTTTTTTTTTTTTT FDIK        TELAPSE      497.27 TCPU      497.20
 INSULATING STATE - TOP OF VALENCE BANDS (A.U.) -8.4508818E-01
 TTTTTTTTTTTTTTTTTTTTTTTTTTTTTT PDIG        TELAPSE      497.33 TCPU      497.27
 CHARGE NORMALIZATION FACTOR   1.00000000
 TTTTTTTTTTTTTTTTTTTTTTTTTTTTTT MOQGAD      TELAPSE      497.38 TCPU      497.32
 TTTTTTTTTTTTTTTTTTTTTTTTTTTTTT SHELLX      TELAPSE      515.28 TCPU      515.21
 TTTTTTTTTTTTTTTTTTTTTTTTTTTTTT MONMO3      TELAPSE      520.73 TCPU      520.66
 CYC  21 ETOT(AU) -1.316702806441E+03 DETOT  4.94E-07 tst  1.19E-08 PX  3.98E-04
 TTTTTTTTTTTTTTTTTTTTTTTTTTTTTT FDIK        TELAPSE      520.89 TCPU      520.82
 INSULATING STATE - TOP OF VALENCE BANDS (A.U.) -8.4508986E-01
 TTTTTTTTTTTTTTTTTTTTTTTTTTTTTT PDIG        TELAPSE      520.96 TCPU      520.89
 CHARGE NORMALIZATION FACTOR   1.00000000
 TTTTTTTTTTTTTTTTTTTTTTTTTTTTTT MOQGAD      TELAPSE      521.00 TCPU      520.94
 TTTTTTTTTTTTTTTTTTTTTTTTTTTTTT SHELLX      TELAPSE      538.89 TCPU      538.83
 TTTTTTTTTTTTTTTTTTTTTTTTTTTTTT MONMO3      TELAPSE      544.36 TCPU      544.30
 CYC  22 ETOT(AU) -1.316702805981E+03 DETOT  4.60E-07 tst  9.73E-09 PX  3.62E-04
 TTTTTTTTTTTTTTTTTTTTTTTTTTTTTT FDIK        TELAPSE      544.52 TCPU      544.46
 INSULATING STATE - TOP OF VALENCE BANDS (A.U.) -8.4509140E-01
 TTTTTTTTTTTTTTTTTTTTTTTTTTTTTT PDIG        TELAPSE      544.59 TCPU      544.53
 CHARGE NORMALIZATION FACTOR   1.00000000
 TTTTTTTTTTTTTTTTTTTTTTTTTTTTTT MOQGAD      TELAPSE      544.64 TCPU      544.57
 TTTTTTTTTTTTTTTTTTTTTTTTTTTTTT SHELLX      TELAPSE      562.53 TCPU      562.46
 TTTTTTTTTTTTTTTTTTTTTTTTTTTTTT MONMO3      TELAPSE      567.99 TCPU      567.92
 CYC  23 ETOT(AU) -1.316702805551E+03 DETOT  4.30E-07 tst  7.97E-09 PX  3.30E-04
 TTTTTTTTTTTTTTTTTTTTTTTTTTTTTT FDIK        TELAPSE      568.15 TCPU      568.08
 INSULATING STATE - TOP OF VALENCE BANDS (A.U.) -8.4509279E-01
 TTTTTTTTTTTTTTTTTTTTTTTTTTTTTT PDIG        TELAPSE      568.22 TCPU      568.15
 CHARGE NORMALIZATION FACTOR   1.00000000
 TTTTTTTTTTTTTTTTTTTTTTTTTTTTTT MOQGAD      TELAPSE      568.27 TCPU      568.19
 TTTTTTTTTTTTTTTTTTTTTTTTTTTTTT SHELLX      TELAPSE      586.16 TCPU      586.09
 TTTTTTTTTTTTTTTTTTTTTTTTTTTTTT MONMO3      TELAPSE      591.63 TCPU      591.55
 CYC  24 ETOT(AU) -1.316702805161E+03 DETOT  3.90E-07 tst  6.56E-09 PX  3.00E-04
 TTTTTTTTTTTTTTTTTTTTTTTTTTTTTT FDIK        TELAPSE      591.79 TCPU      591.72
 INSULATING STATE - TOP OF VALENCE BANDS (A.U.) -8.4509405E-01
 TTTTTTTTTTTTTTTTTTTTTTTTTTTTTT PDIG        TELAPSE      591.86 TCPU      591.78
 CHARGE NORMALIZATION FACTOR   1.00000000
 TTTTTTTTTTTTTTTTTTTTTTTTTTTTTT MOQGAD      TELAPSE      591.90 TCPU      591.83
 TTTTTTTTTTTTTTTTTTTTTTTTTTTTTT SHELLX      TELAPSE      609.79 TCPU      609.72
 TTTTTTTTTTTTTTTTTTTTTTTTTTTTTT MONMO3      TELAPSE      615.24 TCPU      615.17
 CYC  25 ETOT(AU) -1.316702804794E+03 DETOT  3.68E-07 tst  5.40E-09 PX  2.74E-04
 TTTTTTTTTTTTTTTTTTTTTTTTTTTTTT FDIK        TELAPSE      615.40 TCPU      615.34
 INSULATING STATE - TOP OF VALENCE BANDS (A.U.) -8.4509521E-01
 TTTTTTTTTTTTTTTTTTTTTTTTTTTTTT PDIG        TELAPSE      615.47 TCPU      615.40
 CHARGE NORMALIZATION FACTOR   1.00000000
 TTTTTTTTTTTTTTTTTTTTTTTTTTTTTT MOQGAD      TELAPSE      615.52 TCPU      615.45
 TTTTTTTTTTTTTTTTTTTTTTTTTTTTTT SHELLX      TELAPSE      633.41 TCPU      633.34
 TTTTTTTTTTTTTTTTTTTTTTTTTTTTTT MONMO3      TELAPSE      638.87 TCPU      638.81
 CYC  26 ETOT(AU) -1.316702804463E+03 DETOT  3.31E-07 tst  4.47E-09 PX  2.50E-04
 TTTTTTTTTTTTTTTTTTTTTTTTTTTTTT FDIK        TELAPSE      639.03 TCPU      638.97
 INSULATING STATE - TOP OF VALENCE BANDS (A.U.) -8.4509629E-01
 TTTTTTTTTTTTTTTTTTTTTTTTTTTTTT PDIG        TELAPSE      639.10 TCPU      639.03
 CHARGE NORMALIZATION FACTOR   1.00000000
 TTTTTTTTTTTTTTTTTTTTTTTTTTTTTT MOQGAD      TELAPSE      639.15 TCPU      639.08
 TTTTTTTTTTTTTTTTTTTTTTTTTTTTTT SHELLX      TELAPSE      657.04 TCPU      656.97
 TTTTTTTTTTTTTTTTTTTTTTTTTTTTTT MONMO3      TELAPSE      662.49 TCPU      662.43
 CYC  27 ETOT(AU) -1.316702804161E+03 DETOT  3.02E-07 tst  3.70E-09 PX  2.28E-04
 TTTTTTTTTTTTTTTTTTTTTTTTTTTTTT FDIK        TELAPSE      662.65 TCPU      662.59
 INSULATING STATE - TOP OF VALENCE BANDS (A.U.) -8.4509728E-01
 TTTTTTTTTTTTTTTTTTTTTTTTTTTTTT PDIG        TELAPSE      662.72 TCPU      662.66
 CHARGE NORMALIZATION FACTOR   1.00000000
 TTTTTTTTTTTTTTTTTTTTTTTTTTTTTT MOQGAD      TELAPSE      662.77 TCPU      662.70
 TTTTTTTTTTTTTTTTTTTTTTTTTTTTTT SHELLX      TELAPSE      680.66 TCPU      680.60
 TTTTTTTTTTTTTTTTTTTTTTTTTTTTTT MONMO3      TELAPSE      686.12 TCPU      686.06
 CYC  28 ETOT(AU) -1.316702803881E+03 DETOT  2.80E-07 tst  3.07E-09 PX  2.08E-04
 TTTTTTTTTTTTTTTTTTTTTTTTTTTTTT FDIK        TELAPSE      686.28 TCPU      686.22
 INSULATING STATE - TOP OF VALENCE BANDS (A.U.) -8.4509821E-01
 TTTTTTTTTTTTTTTTTTTTTTTTTTTTTT PDIG        TELAPSE      686.35 TCPU      686.29
 CHARGE NORMALIZATION FACTOR   1.00000000
 TTTTTTTTTTTTTTTTTTTTTTTTTTTTTT MOQGAD      TELAPSE      686.40 TCPU      686.33
 TTTTTTTTTTTTTTTTTTTTTTTTTTTTTT SHELLX      TELAPSE      704.29 TCPU      704.23
 TTTTTTTTTTTTTTTTTTTTTTTTTTTTTT MONMO3      TELAPSE      709.75 TCPU      709.69
 CYC  29 ETOT(AU) -1.316702803629E+03 DETOT  2.52E-07 tst  2.56E-09 PX  1.90E-04
 TTTTTTTTTTTTTTTTTTTTTTTTTTTTTT FDIK        TELAPSE      709.91 TCPU      709.85
 INSULATING STATE - TOP OF VALENCE BANDS (A.U.) -8.4509905E-01
 TTTTTTTTTTTTTTTTTTTTTTTTTTTTTT PDIG        TELAPSE      709.98 TCPU      709.92
 CHARGE NORMALIZATION FACTOR   1.00000000
 TTTTTTTTTTTTTTTTTTTTTTTTTTTTTT MOQGAD      TELAPSE      710.02 TCPU      709.96
 TTTTTTTTTTTTTTTTTTTTTTTTTTTTTT SHELLX      TELAPSE      727.91 TCPU      727.85
 TTTTTTTTTTTTTTTTTTTTTTTTTTTTTT MONMO3      TELAPSE      733.38 TCPU      733.32
 CYC  30 ETOT(AU) -1.316702803399E+03 DETOT  2.30E-07 tst  2.13E-09 PX  1.74E-04
 TTTTTTTTTTTTTTTTTTTTTTTTTTTTTT FDIK        TELAPSE      733.54 TCPU      733.48
 INSULATING STATE - TOP OF VALENCE BANDS (A.U.) -8.4509983E-01
 TTTTTTTTTTTTTTTTTTTTTTTTTTTTTT PDIG        TELAPSE      733.60 TCPU      733.55
 CHARGE NORMALIZATION FACTOR   1.00000000
 TTTTTTTTTTTTTTTTTTTTTTTTTTTTTT MOQGAD      TELAPSE      733.65 TCPU      733.59
 TTTTTTTTTTTTTTTTTTTTTTTTTTTTTT SHELLX      TELAPSE      751.54 TCPU      751.48
 TTTTTTTTTTTTTTTTTTTTTTTTTTTTTT MONMO3      TELAPSE      756.99 TCPU      756.94
 CYC  31 ETOT(AU) -1.316702803190E+03 DETOT  2.10E-07 tst  1.81E-09 PX  1.59E-04
 TTTTTTTTTTTTTTTTTTTTTTTTTTTTTT FDIK        TELAPSE      757.15 TCPU      757.10
 INSULATING STATE - TOP OF VALENCE BANDS (A.U.) -8.4510055E-01
 TTTTTTTTTTTTTTTTTTTTTTTTTTTTTT PDIG        TELAPSE      757.22 TCPU      757.17
 CHARGE NORMALIZATION FACTOR   1.00000000
 TTTTTTTTTTTTTTTTTTTTTTTTTTTTTT MOQGAD      TELAPSE      757.27 TCPU      757.21
 TTTTTTTTTTTTTTTTTTTTTTTTTTTTTT SHELLX      TELAPSE      775.16 TCPU      775.10
 TTTTTTTTTTTTTTTTTTTTTTTTTTTTTT MONMO3      TELAPSE      780.62 TCPU      780.57
 CYC  32 ETOT(AU) -1.316702802998E+03 DETOT  1.91E-07 tst  1.56E-09 PX  1.45E-04
 TTTTTTTTTTTTTTTTTTTTTTTTTTTTTT FDIK        TELAPSE      780.79 TCPU      780.73
 INSULATING STATE - TOP OF VALENCE BANDS (A.U.) -8.4510122E-01
 TTTTTTTTTTTTTTTTTTTTTTTTTTTTTT PDIG        TELAPSE      780.85 TCPU      780.80
 CHARGE NORMALIZATION FACTOR   1.00000000
 TTTTTTTTTTTTTTTTTTTTTTTTTTTTTT MOQGAD      TELAPSE      780.90 TCPU      780.84
 TTTTTTTTTTTTTTTTTTTTTTTTTTTTTT SHELLX      TELAPSE      798.79 TCPU      798.74
 TTTTTTTTTTTTTTTTTTTTTTTTTTTTTT MONMO3      TELAPSE      804.24 TCPU      804.19
 CYC  33 ETOT(AU) -1.316702802823E+03 DETOT  1.75E-07 tst  1.33E-09 PX  1.33E-04
 TTTTTTTTTTTTTTTTTTTTTTTTTTTTTT FDIK        TELAPSE      804.40 TCPU      804.35
 INSULATING STATE - TOP OF VALENCE BANDS (A.U.) -8.4510184E-01
 TTTTTTTTTTTTTTTTTTTTTTTTTTTTTT PDIG        TELAPSE      804.47 TCPU      804.42
 CHARGE NORMALIZATION FACTOR   1.00000000
 TTTTTTTTTTTTTTTTTTTTTTTTTTTTTT MOQGAD      TELAPSE      804.51 TCPU      804.46
 TTTTTTTTTTTTTTTTTTTTTTTTTTTTTT SHELLX      TELAPSE      822.41 TCPU      822.35
 TTTTTTTTTTTTTTTTTTTTTTTTTTTTTT MONMO3      TELAPSE      827.87 TCPU      827.82
 CYC  34 ETOT(AU) -1.316702802665E+03 DETOT  1.59E-07 tst  1.15E-09 PX  1.22E-04
 TTTTTTTTTTTTTTTTTTTTTTTTTTTTTT FDIK        TELAPSE      828.03 TCPU      827.98
 INSULATING STATE - TOP OF VALENCE BANDS (A.U.) -8.4510242E-01
 TTTTTTTTTTTTTTTTTTTTTTTTTTTTTT PDIG        TELAPSE      828.10 TCPU      828.05
 CHARGE NORMALIZATION FACTOR   1.00000000
 TTTTTTTTTTTTTTTTTTTTTTTTTTTTTT MOQGAD      TELAPSE      828.15 TCPU      828.09
 TTTTTTTTTTTTTTTTTTTTTTTTTTTTTT SHELLX      TELAPSE      846.04 TCPU      845.99
 TTTTTTTTTTTTTTTTTTTTTTTTTTTTTT MONMO3      TELAPSE      851.49 TCPU      851.44
 CYC  35 ETOT(AU) -1.316702802520E+03 DETOT  1.45E-07 tst  9.93E-10 PX  1.14E-04
 TTTTTTTTTTTTTTTTTTTTTTTTTTTTTT FDIK        TELAPSE      851.65 TCPU      851.60
 INSULATING STATE - TOP OF VALENCE BANDS (A.U.) -8.4510294E-01
 TTTTTTTTTTTTTTTTTTTTTTTTTTTTTT PDIG        TELAPSE      851.72 TCPU      851.67
 CHARGE NORMALIZATION FACTOR   1.00000000
 TTTTTTTTTTTTTTTTTTTTTTTTTTTTTT MOQGAD      TELAPSE      851.76 TCPU      851.72
 TTTTTTTTTTTTTTTTTTTTTTTTTTTTTT SHELLX      TELAPSE      869.66 TCPU      869.61
 TTTTTTTTTTTTTTTTTTTTTTTTTTTTTT MONMO3      TELAPSE      875.12 TCPU      875.07
 CYC  36 ETOT(AU) -1.316702802387E+03 DETOT  1.33E-07 tst  8.66E-10 PX  1.08E-04
 TTTTTTTTTTTTTTTTTTTTTTTTTTTTTT FDIK        TELAPSE      875.28 TCPU      875.23
 INSULATING STATE - TOP OF VALENCE BANDS (A.U.) -8.4510344E-01
 TTTTTTTTTTTTTTTTTTTTTTTTTTTTTT PDIG        TELAPSE      875.35 TCPU      875.30
 CHARGE NORMALIZATION FACTOR   1.00000000
 TTTTTTTTTTTTTTTTTTTTTTTTTTTTTT MOQGAD      TELAPSE      875.39 TCPU      875.35
 TTTTTTTTTTTTTTTTTTTTTTTTTTTTTT SHELLX      TELAPSE      893.29 TCPU      893.24
 TTTTTTTTTTTTTTTTTTTTTTTTTTTTTT MONMO3      TELAPSE      898.74 TCPU      898.69
 CYC  37 ETOT(AU) -1.316702802266E+03 DETOT  1.21E-07 tst  7.55E-10 PX  1.02E-04
 TTTTTTTTTTTTTTTTTTTTTTTTTTTTTT FDIK        TELAPSE      898.90 TCPU      898.85
 INSULATING STATE - TOP OF VALENCE BANDS (A.U.) -8.4510389E-01
 TTTTTTTTTTTTTTTTTTTTTTTTTTTTTT PDIG        TELAPSE      898.97 TCPU      898.92
 CHARGE NORMALIZATION FACTOR   1.00000000
 TTTTTTTTTTTTTTTTTTTTTTTTTTTTTT MOQGAD      TELAPSE      899.01 TCPU      898.97
 TTTTTTTTTTTTTTTTTTTTTTTTTTTTTT SHELLX      TELAPSE      916.90 TCPU      916.86
 TTTTTTTTTTTTTTTTTTTTTTTTTTTTTT MONMO3      TELAPSE      922.37 TCPU      922.32
 CYC  38 ETOT(AU) -1.316702802157E+03 DETOT  1.09E-07 tst  6.59E-10 PX  9.61E-05
 TTTTTTTTTTTTTTTTTTTTTTTTTTTTTT FDIK        TELAPSE      922.53 TCPU      922.49
 INSULATING STATE - TOP OF VALENCE BANDS (A.U.) -8.4510432E-01
 TTTTTTTTTTTTTTTTTTTTTTTTTTTTTT PDIG        TELAPSE      922.60 TCPU      922.55
 CHARGE NORMALIZATION FACTOR   1.00000000
 TTTTTTTTTTTTTTTTTTTTTTTTTTTTTT MOQGAD      TELAPSE      922.64 TCPU      922.60
 TTTTTTTTTTTTTTTTTTTTTTTTTTTTTT SHELLX      TELAPSE      940.54 TCPU      940.49
 TTTTTTTTTTTTTTTTTTTTTTTTTTTTTT MONMO3      TELAPSE      945.99 TCPU      945.95
 CYC  39 ETOT(AU) -1.316702802056E+03 DETOT  1.01E-07 tst  5.75E-10 PX  9.06E-05
 TTTTTTTTTTTTTTTTTTTTTTTTTTTTTT FDIK        TELAPSE      946.15 TCPU      946.11
 INSULATING STATE - TOP OF VALENCE BANDS (A.U.) -8.4510471E-01
 TTTTTTTTTTTTTTTTTTTTTTTTTTTTTT PDIG        TELAPSE      946.22 TCPU      946.18
 CHARGE NORMALIZATION FACTOR   1.00000000
 TTTTTTTTTTTTTTTTTTTTTTTTTTTTTT MOQGAD      TELAPSE      946.27 TCPU      946.22
 TTTTTTTTTTTTTTTTTTTTTTTTTTTTTT SHELLX      TELAPSE      964.16 TCPU      964.12
 TTTTTTTTTTTTTTTTTTTTTTTTTTTTTT MONMO3      TELAPSE      969.62 TCPU      969.58
 CYC  40 ETOT(AU) -1.316702801963E+03 DETOT  9.33E-08 tst  5.02E-10 PX  8.53E-05
 TTTTTTTTTTTTTTTTTTTTTTTTTTTTTT FDIK        TELAPSE      969.78 TCPU      969.74
 INSULATING STATE - TOP OF VALENCE BANDS (A.U.) -8.4510507E-01
 TTTTTTTTTTTTTTTTTTTTTTTTTTTTTT PDIG        TELAPSE      969.85 TCPU      969.81
 CHARGE NORMALIZATION FACTOR   1.00000000
 TTTTTTTTTTTTTTTTTTTTTTTTTTTTTT MOQGAD      TELAPSE      969.90 TCPU      969.86
 TTTTTTTTTTTTTTTTTTTTTTTTTTTTTT SHELLX      TELAPSE      987.79 TCPU      987.75
 TTTTTTTTTTTTTTTTTTTTTTTTTTTTTT MONMO3      TELAPSE      993.24 TCPU      993.21
 CYC  41 ETOT(AU) -1.316702801877E+03 DETOT  8.55E-08 tst  4.38E-10 PX  8.03E-05
 TTTTTTTTTTTTTTTTTTTTTTTTTTTTTT FDIK        TELAPSE      993.40 TCPU      993.37
 INSULATING STATE - TOP OF VALENCE BANDS (A.U.) -8.4510540E-01
 TTTTTTTTTTTTTTTTTTTTTTTTTTTTTT PDIG        TELAPSE      993.47 TCPU      993.44
 CHARGE NORMALIZATION FACTOR   1.00000000
 TTTTTTTTTTTTTTTTTTTTTTTTTTTTTT MOQGAD      TELAPSE      993.52 TCPU      993.48
 TTTTTTTTTTTTTTTTTTTTTTTTTTTTTT SHELLX      TELAPSE     1011.41 TCPU     1011.37
 TTTTTTTTTTTTTTTTTTTTTTTTTTTTTT MONMO3      TELAPSE     1016.87 TCPU     1016.83
 CYC  42 ETOT(AU) -1.316702801800E+03 DETOT  7.72E-08 tst  3.83E-10 PX  7.56E-05
 TTTTTTTTTTTTTTTTTTTTTTTTTTTTTT FDIK        TELAPSE     1017.03 TCPU     1017.00
 INSULATING STATE - TOP OF VALENCE BANDS (A.U.) -8.4510572E-01
 TTTTTTTTTTTTTTTTTTTTTTTTTTTTTT PDIG        TELAPSE     1017.10 TCPU     1017.06
 CHARGE NORMALIZATION FACTOR   1.00000000
 TTTTTTTTTTTTTTTTTTTTTTTTTTTTTT MOQGAD      TELAPSE     1017.15 TCPU     1017.11
 TTTTTTTTTTTTTTTTTTTTTTTTTTTTTT SHELLX      TELAPSE     1035.04 TCPU     1035.00
 TTTTTTTTTTTTTTTTTTTTTTTTTTTTTT MONMO3      TELAPSE     1040.49 TCPU     1040.45
 CYC  43 ETOT(AU) -1.316702801728E+03 DETOT  7.24E-08 tst  3.34E-10 PX  7.11E-05
 TTTTTTTTTTTTTTTTTTTTTTTTTTTTTT FDIK        TELAPSE     1040.65 TCPU     1040.62
 INSULATING STATE - TOP OF VALENCE BANDS (A.U.) -8.4510601E-01
 TTTTTTTTTTTTTTTTTTTTTTTTTTTTTT PDIG        TELAPSE     1040.72 TCPU     1040.68
 CHARGE NORMALIZATION FACTOR   1.00000000
 TTTTTTTTTTTTTTTTTTTTTTTTTTTTTT MOQGAD      TELAPSE     1040.76 TCPU     1040.73
 TTTTTTTTTTTTTTTTTTTTTTTTTTTTTT SHELLX      TELAPSE     1058.65 TCPU     1058.62
 TTTTTTTTTTTTTTTTTTTTTTTTTTTTTT MONMO3      TELAPSE     1064.12 TCPU     1064.09
 CYC  44 ETOT(AU) -1.316702801663E+03 DETOT  6.44E-08 tst  2.92E-10 PX  6.69E-05
 TTTTTTTTTTTTTTTTTTTTTTTTTTTTTT FDIK        TELAPSE     1064.28 TCPU     1064.25
 INSULATING STATE - TOP OF VALENCE BANDS (A.U.) -8.4510628E-01
 TTTTTTTTTTTTTTTTTTTTTTTTTTTTTT PDIG        TELAPSE     1064.35 TCPU     1064.32
 CHARGE NORMALIZATION FACTOR   1.00000000
 TTTTTTTTTTTTTTTTTTTTTTTTTTTTTT MOQGAD      TELAPSE     1064.40 TCPU     1064.36
 TTTTTTTTTTTTTTTTTTTTTTTTTTTTTT SHELLX      TELAPSE     1082.29 TCPU     1082.26
 TTTTTTTTTTTTTTTTTTTTTTTTTTTTTT MONMO3      TELAPSE     1087.74 TCPU     1087.71
 CYC  45 ETOT(AU) -1.316702801603E+03 DETOT  6.07E-08 tst  2.55E-10 PX  6.29E-05
 TTTTTTTTTTTTTTTTTTTTTTTTTTTTTT FDIK        TELAPSE     1087.90 TCPU     1087.87
 INSULATING STATE - TOP OF VALENCE BANDS (A.U.) -8.4510653E-01
 TTTTTTTTTTTTTTTTTTTTTTTTTTTTTT PDIG        TELAPSE     1087.97 TCPU     1087.94
 CHARGE NORMALIZATION FACTOR   1.00000000
 TTTTTTTTTTTTTTTTTTTTTTTTTTTTTT MOQGAD      TELAPSE     1088.01 TCPU     1087.98
 TTTTTTTTTTTTTTTTTTTTTTTTTTTTTT SHELLX      TELAPSE     1105.90 TCPU     1105.88
 TTTTTTTTTTTTTTTTTTTTTTTTTTTTTT MONMO3      TELAPSE     1111.37 TCPU     1111.34
 CYC  46 ETOT(AU) -1.316702801548E+03 DETOT  5.44E-08 tst  2.23E-10 PX  5.92E-05
 TTTTTTTTTTTTTTTTTTTTTTTTTTTTTT FDIK        TELAPSE     1111.53 TCPU     1111.50
 INSULATING STATE - TOP OF VALENCE BANDS (A.U.) -8.4510676E-01
 TTTTTTTTTTTTTTTTTTTTTTTTTTTTTT PDIG        TELAPSE     1111.60 TCPU     1111.57
 CHARGE NORMALIZATION FACTOR   1.00000000
 TTTTTTTTTTTTTTTTTTTTTTTTTTTTTT MOQGAD      TELAPSE     1111.64 TCPU     1111.61
 TTTTTTTTTTTTTTTTTTTTTTTTTTTTTT SHELLX      TELAPSE     1129.53 TCPU     1129.51
 TTTTTTTTTTTTTTTTTTTTTTTTTTTTTT MONMO3      TELAPSE     1134.99 TCPU     1134.96
 CYC  47 ETOT(AU) -1.316702801498E+03 DETOT  5.09E-08 tst  1.94E-10 PX  5.56E-05
 TTTTTTTTTTTTTTTTTTTTTTTTTTTTTT FDIK        TELAPSE     1135.15 TCPU     1135.12
 INSULATING STATE - TOP OF VALENCE BANDS (A.U.) -8.4510698E-01
 TTTTTTTTTTTTTTTTTTTTTTTTTTTTTT PDIG        TELAPSE     1135.21 TCPU     1135.19
 CHARGE NORMALIZATION FACTOR   1.00000000
 TTTTTTTTTTTTTTTTTTTTTTTTTTTTTT MOQGAD      TELAPSE     1135.26 TCPU     1135.23
 TTTTTTTTTTTTTTTTTTTTTTTTTTTTTT SHELLX      TELAPSE     1153.15 TCPU     1153.13
 TTTTTTTTTTTTTTTTTTTTTTTTTTTTTT MONMO3      TELAPSE     1158.61 TCPU     1158.59
 CYC  48 ETOT(AU) -1.316702801451E+03 DETOT  4.67E-08 tst  1.70E-10 PX  5.22E-05
 TTTTTTTTTTTTTTTTTTTTTTTTTTTTTT FDIK        TELAPSE     1158.78 TCPU     1158.75
 INSULATING STATE - TOP OF VALENCE BANDS (A.U.) -8.4510718E-01
 TTTTTTTTTTTTTTTTTTTTTTTTTTTTTT PDIG        TELAPSE     1158.84 TCPU     1158.82
 CHARGE NORMALIZATION FACTOR   1.00000000
 TTTTTTTTTTTTTTTTTTTTTTTTTTTTTT MOQGAD      TELAPSE     1158.89 TCPU     1158.87
 TTTTTTTTTTTTTTTTTTTTTTTTTTTTTT SHELLX      TELAPSE     1176.78 TCPU     1176.76
 TTTTTTTTTTTTTTTTTTTTTTTTTTTTTT MONMO3      TELAPSE     1182.23 TCPU     1182.21
 CYC  49 ETOT(AU) -1.316702801408E+03 DETOT  4.24E-08 tst  1.48E-10 PX  4.90E-05
 TTTTTTTTTTTTTTTTTTTTTTTTTTTTTT FDIK        TELAPSE     1182.40 TCPU     1182.37
 INSULATING STATE - TOP OF VALENCE BANDS (A.U.) -8.4510736E-01
 TTTTTTTTTTTTTTTTTTTTTTTTTTTTTT PDIG        TELAPSE     1182.47 TCPU     1182.44
 CHARGE NORMALIZATION FACTOR   1.00000000
 TTTTTTTTTTTTTTTTTTTTTTTTTTTTTT MOQGAD      TELAPSE     1182.51 TCPU     1182.49
 TTTTTTTTTTTTTTTTTTTTTTTTTTTTTT SHELLX      TELAPSE     1200.40 TCPU     1200.38
 TTTTTTTTTTTTTTTTTTTTTTTTTTTTTT MONMO3      TELAPSE     1205.86 TCPU     1205.84
 CYC  50 ETOT(AU) -1.316702801369E+03 DETOT  3.91E-08 tst  1.29E-10 PX  4.61E-05
 TTTTTTTTTTTTTTTTTTTTTTTTTTTTTT FDIK        TELAPSE     1206.02 TCPU     1206.00
 INSULATING STATE - TOP OF VALENCE BANDS (A.U.) -8.4510754E-01
 TTTTTTTTTTTTTTTTTTTTTTTTTTTTTT PDIG        TELAPSE     1206.09 TCPU     1206.07
 CHARGE NORMALIZATION FACTOR   1.00000000
 TTTTTTTTTTTTTTTTTTTTTTTTTTTTTT MOQGAD      TELAPSE     1206.14 TCPU     1206.12
 TTTTTTTTTTTTTTTTTTTTTTTTTTTTTT SHELLX      TELAPSE     1224.03 TCPU     1224.01
 TTTTTTTTTTTTTTTTTTTTTTTTTTTTTT MONMO3      TELAPSE     1229.49 TCPU     1229.47
 CYC  51 ETOT(AU) -1.316702801332E+03 DETOT  3.73E-08 tst  1.13E-10 PX  4.33E-05
 TTTTTTTTTTTTTTTTTTTTTTTTTTTTTT FDIK        TELAPSE     1229.65 TCPU     1229.63
 INSULATING STATE - TOP OF VALENCE BANDS (A.U.) -8.4510770E-01
 TTTTTTTTTTTTTTTTTTTTTTTTTTTTTT PDIG        TELAPSE     1229.72 TCPU     1229.70
 CHARGE NORMALIZATION FACTOR   1.00000000
 TTTTTTTTTTTTTTTTTTTTTTTTTTTTTT MOQGAD      TELAPSE     1229.76 TCPU     1229.74
 TTTTTTTTTTTTTTTTTTTTTTTTTTTTTT SHELLX      TELAPSE     1247.65 TCPU     1247.64
 TTTTTTTTTTTTTTTTTTTTTTTTTTTTTT MONMO3      TELAPSE     1253.12 TCPU     1253.11
 CYC  52 ETOT(AU) -1.316702801299E+03 DETOT  3.30E-08 tst  9.89E-11 PX  4.06E-05
 TTTTTTTTTTTTTTTTTTTTTTTTTTTTTT FDIK        TELAPSE     1253.28 TCPU     1253.27
 INSULATING STATE - TOP OF VALENCE BANDS (A.U.) -8.4510785E-01
 TTTTTTTTTTTTTTTTTTTTTTTTTTTTTT PDIG        TELAPSE     1253.35 TCPU     1253.34
 CHARGE NORMALIZATION FACTOR   1.00000000
 TTTTTTTTTTTTTTTTTTTTTTTTTTTTTT MOQGAD      TELAPSE     1253.40 TCPU     1253.38
 TTTTTTTTTTTTTTTTTTTTTTTTTTTTTT SHELLX      TELAPSE     1271.29 TCPU     1271.28
 TTTTTTTTTTTTTTTTTTTTTTTTTTTTTT MONMO3      TELAPSE     1276.74 TCPU     1276.73
 CYC  53 ETOT(AU) -1.316702801268E+03 DETOT  3.09E-08 tst  8.64E-11 PX  3.81E-05
 TTTTTTTTTTTTTTTTTTTTTTTTTTTTTT FDIK        TELAPSE     1276.90 TCPU     1276.89
 INSULATING STATE - TOP OF VALENCE BANDS (A.U.) -8.4510799E-01
 TTTTTTTTTTTTTTTTTTTTTTTTTTTTTT PDIG        TELAPSE     1276.97 TCPU     1276.96
 CHARGE NORMALIZATION FACTOR   1.00000000
 TTTTTTTTTTTTTTTTTTTTTTTTTTTTTT MOQGAD      TELAPSE     1277.01 TCPU     1277.00
 TTTTTTTTTTTTTTTTTTTTTTTTTTTTTT SHELLX      TELAPSE     1294.90 TCPU     1294.89
 TTTTTTTTTTTTTTTTTTTTTTTTTTTTTT MONMO3      TELAPSE     1300.37 TCPU     1300.36
 CYC  54 ETOT(AU) -1.316702801240E+03 DETOT  2.85E-08 tst  7.55E-11 PX  3.58E-05
 TTTTTTTTTTTTTTTTTTTTTTTTTTTTTT FDIK        TELAPSE     1300.53 TCPU     1300.52
 INSULATING STATE - TOP OF VALENCE BANDS (A.U.) -8.4510812E-01
 TTTTTTTTTTTTTTTTTTTTTTTTTTTTTT PDIG        TELAPSE     1300.60 TCPU     1300.58
 CHARGE NORMALIZATION FACTOR   1.00000000
 TTTTTTTTTTTTTTTTTTTTTTTTTTTTTT MOQGAD      TELAPSE     1300.64 TCPU     1300.63
 TTTTTTTTTTTTTTTTTTTTTTTTTTTTTT SHELLX      TELAPSE     1318.53 TCPU     1318.53
 TTTTTTTTTTTTTTTTTTTTTTTTTTTTTT MONMO3      TELAPSE     1323.99 TCPU     1323.98
 CYC  55 ETOT(AU) -1.316702801213E+03 DETOT  2.63E-08 tst  6.60E-11 PX  3.36E-05
 TTTTTTTTTTTTTTTTTTTTTTTTTTTTTT FDIK        TELAPSE     1324.15 TCPU     1324.14
 INSULATING STATE - TOP OF VALENCE BANDS (A.U.) -8.4510825E-01
 TTTTTTTTTTTTTTTTTTTTTTTTTTTTTT PDIG        TELAPSE     1324.21 TCPU     1324.21
 CHARGE NORMALIZATION FACTOR   1.00000000
 TTTTTTTTTTTTTTTTTTTTTTTTTTTTTT MOQGAD      TELAPSE     1324.26 TCPU     1324.25
 TTTTTTTTTTTTTTTTTTTTTTTTTTTTTT SHELLX      TELAPSE     1342.15 TCPU     1342.15
 TTTTTTTTTTTTTTTTTTTTTTTTTTTTTT MONMO3      TELAPSE     1347.61 TCPU     1347.60
 CYC  56 ETOT(AU) -1.316702801189E+03 DETOT  2.41E-08 tst  5.75E-11 PX  3.15E-05
 TTTTTTTTTTTTTTTTTTTTTTTTTTTTTT FDIK        TELAPSE     1347.77 TCPU     1347.76
 INSULATING STATE - TOP OF VALENCE BANDS (A.U.) -8.4510836E-01
 TTTTTTTTTTTTTTTTTTTTTTTTTTTTTT PDIG        TELAPSE     1347.84 TCPU     1347.83
 CHARGE NORMALIZATION FACTOR   1.00000000
 TTTTTTTTTTTTTTTTTTTTTTTTTTTTTT MOQGAD      TELAPSE     1347.88 TCPU     1347.88
 TTTTTTTTTTTTTTTTTTTTTTTTTTTTTT SHELLX      TELAPSE     1365.77 TCPU     1365.77
 TTTTTTTTTTTTTTTTTTTTTTTTTTTTTT MONMO3      TELAPSE     1371.23 TCPU     1371.23
 CYC  57 ETOT(AU) -1.316702801167E+03 DETOT  2.27E-08 tst  5.03E-11 PX  2.96E-05
 TTTTTTTTTTTTTTTTTTTTTTTTTTTTTT FDIK        TELAPSE     1371.39 TCPU     1371.39
 INSULATING STATE - TOP OF VALENCE BANDS (A.U.) -8.4510846E-01
 TTTTTTTTTTTTTTTTTTTTTTTTTTTTTT PDIG        TELAPSE     1371.46 TCPU     1371.46
 CHARGE NORMALIZATION FACTOR   1.00000000
 TTTTTTTTTTTTTTTTTTTTTTTTTTTTTT MOQGAD      TELAPSE     1371.50 TCPU     1371.50
 TTTTTTTTTTTTTTTTTTTTTTTTTTTTTT SHELLX      TELAPSE     1389.40 TCPU     1389.40
 TTTTTTTTTTTTTTTTTTTTTTTTTTTTTT MONMO3      TELAPSE     1394.86 TCPU     1394.86
 CYC  58 ETOT(AU) -1.316702801146E+03 DETOT  2.07E-08 tst  4.39E-11 PX  2.78E-05
 TTTTTTTTTTTTTTTTTTTTTTTTTTTTTT FDIK        TELAPSE     1395.02 TCPU     1395.02
 INSULATING STATE - TOP OF VALENCE BANDS (A.U.) -8.4510856E-01
 TTTTTTTTTTTTTTTTTTTTTTTTTTTTTT PDIG        TELAPSE     1395.09 TCPU     1395.09
 CHARGE NORMALIZATION FACTOR   1.00000000
 TTTTTTTTTTTTTTTTTTTTTTTTTTTTTT MOQGAD      TELAPSE     1395.14 TCPU     1395.14
 TTTTTTTTTTTTTTTTTTTTTTTTTTTTTT SHELLX      TELAPSE     1413.03 TCPU     1413.03
 TTTTTTTTTTTTTTTTTTTTTTTTTTTTTT MONMO3      TELAPSE     1418.48 TCPU     1418.48
 CYC  59 ETOT(AU) -1.316702801127E+03 DETOT  1.91E-08 tst  3.84E-11 PX  2.60E-05
 TTTTTTTTTTTTTTTTTTTTTTTTTTTTTT FDIK        TELAPSE     1418.64 TCPU     1418.64
 INSULATING STATE - TOP OF VALENCE BANDS (A.U.) -8.4510866E-01
 TTTTTTTTTTTTTTTTTTTTTTTTTTTTTT PDIG        TELAPSE     1418.71 TCPU     1418.71
 CHARGE NORMALIZATION FACTOR   1.00000000
 TTTTTTTTTTTTTTTTTTTTTTTTTTTTTT MOQGAD      TELAPSE     1418.76 TCPU     1418.76
 TTTTTTTTTTTTTTTTTTTTTTTTTTTTTT SHELLX      TELAPSE     1436.65 TCPU     1436.65
 TTTTTTTTTTTTTTTTTTTTTTTTTTTTTT MONMO3      TELAPSE     1442.11 TCPU     1442.11
 CYC  60 ETOT(AU) -1.316702801109E+03 DETOT  1.80E-08 tst  3.35E-11 PX  2.44E-05
 TTTTTTTTTTTTTTTTTTTTTTTTTTTTTT FDIK        TELAPSE     1442.27 TCPU     1442.27
 INSULATING STATE - TOP OF VALENCE BANDS (A.U.) -8.4510874E-01
 TTTTTTTTTTTTTTTTTTTTTTTTTTTTTT PDIG        TELAPSE     1442.33 TCPU     1442.34
 CHARGE NORMALIZATION FACTOR   1.00000000
 TTTTTTTTTTTTTTTTTTTTTTTTTTTTTT MOQGAD      TELAPSE     1442.38 TCPU     1442.38
 TTTTTTTTTTTTTTTTTTTTTTTTTTTTTT SHELLX      TELAPSE     1460.27 TCPU     1460.28
 TTTTTTTTTTTTTTTTTTTTTTTTTTTTTT MONMO3      TELAPSE     1465.73 TCPU     1465.73
 CYC  61 ETOT(AU) -1.316702801092E+03 DETOT  1.63E-08 tst  2.93E-11 PX  2.29E-05
 TTTTTTTTTTTTTTTTTTTTTTTTTTTTTT FDIK        TELAPSE     1465.89 TCPU     1465.89
 INSULATING STATE - TOP OF VALENCE BANDS (A.U.) -8.4510882E-01
 TTTTTTTTTTTTTTTTTTTTTTTTTTTTTT PDIG        TELAPSE     1465.96 TCPU     1465.96
 CHARGE NORMALIZATION FACTOR   1.00000000
 TTTTTTTTTTTTTTTTTTTTTTTTTTTTTT MOQGAD      TELAPSE     1466.00 TCPU     1466.01
 TTTTTTTTTTTTTTTTTTTTTTTTTTTTTT SHELLX      TELAPSE     1483.89 TCPU     1483.90
 TTTTTTTTTTTTTTTTTTTTTTTTTTTTTT MONMO3      TELAPSE     1489.36 TCPU     1489.37
 CYC  62 ETOT(AU) -1.316702801077E+03 DETOT  1.52E-08 tst  2.56E-11 PX  2.15E-05
 TTTTTTTTTTTTTTTTTTTTTTTTTTTTTT FDIK        TELAPSE     1489.52 TCPU     1489.53
 INSULATING STATE - TOP OF VALENCE BANDS (A.U.) -8.4510890E-01
 TTTTTTTTTTTTTTTTTTTTTTTTTTTTTT PDIG        TELAPSE     1489.59 TCPU     1489.60
 CHARGE NORMALIZATION FACTOR   1.00000000
 TTTTTTTTTTTTTTTTTTTTTTTTTTTTTT MOQGAD      TELAPSE     1489.64 TCPU     1489.64
 TTTTTTTTTTTTTTTTTTTTTTTTTTTTTT SHELLX      TELAPSE     1507.52 TCPU     1507.53
 TTTTTTTTTTTTTTTTTTTTTTTTTTTTTT MONMO3      TELAPSE     1512.98 TCPU     1512.99
 CYC  63 ETOT(AU) -1.316702801063E+03 DETOT  1.41E-08 tst  2.24E-11 PX  2.01E-05
 TTTTTTTTTTTTTTTTTTTTTTTTTTTTTT FDIK        TELAPSE     1513.14 TCPU     1513.15
 INSULATING STATE - TOP OF VALENCE BANDS (A.U.) -8.4510896E-01
 TTTTTTTTTTTTTTTTTTTTTTTTTTTTTT PDIG        TELAPSE     1513.21 TCPU     1513.22
 CHARGE NORMALIZATION FACTOR   1.00000000
 TTTTTTTTTTTTTTTTTTTTTTTTTTTTTT MOQGAD      TELAPSE     1513.25 TCPU     1513.26
 TTTTTTTTTTTTTTTTTTTTTTTTTTTTTT SHELLX      TELAPSE     1531.14 TCPU     1531.15
 TTTTTTTTTTTTTTTTTTTTTTTTTTTTTT MONMO3      TELAPSE     1536.61 TCPU     1536.62
 CYC  64 ETOT(AU) -1.316702801050E+03 DETOT  1.30E-08 tst  1.95E-11 PX  1.89E-05
 TTTTTTTTTTTTTTTTTTTTTTTTTTTTTT FDIK        TELAPSE     1536.77 TCPU     1536.78
 INSULATING STATE - TOP OF VALENCE BANDS (A.U.) -8.4510903E-01
 TTTTTTTTTTTTTTTTTTTTTTTTTTTTTT PDIG        TELAPSE     1536.84 TCPU     1536.85
 CHARGE NORMALIZATION FACTOR   1.00000000
 TTTTTTTTTTTTTTTTTTTTTTTTTTTTTT MOQGAD      TELAPSE     1536.88 TCPU     1536.89
 TTTTTTTTTTTTTTTTTTTTTTTTTTTTTT SHELLX      TELAPSE     1554.77 TCPU     1554.78
 TTTTTTTTTTTTTTTTTTTTTTTTTTTTTT MONMO3      TELAPSE     1560.22 TCPU     1560.24
 CYC  65 ETOT(AU) -1.316702801038E+03 DETOT  1.19E-08 tst  1.71E-11 PX  1.77E-05
 TTTTTTTTTTTTTTTTTTTTTTTTTTTTTT FDIK        TELAPSE     1560.39 TCPU     1560.40
 INSULATING STATE - TOP OF VALENCE BANDS (A.U.) -8.4510909E-01
 TTTTTTTTTTTTTTTTTTTTTTTTTTTTTT PDIG        TELAPSE     1560.45 TCPU     1560.47
 CHARGE NORMALIZATION FACTOR   1.00000000
 TTTTTTTTTTTTTTTTTTTTTTTTTTTTTT MOQGAD      TELAPSE     1560.50 TCPU     1560.51
 TTTTTTTTTTTTTTTTTTTTTTTTTTTTTT SHELLX      TELAPSE     1578.39 TCPU     1578.40
 TTTTTTTTTTTTTTTTTTTTTTTTTTTTTT MONMO3      TELAPSE     1583.85 TCPU     1583.87
 CYC  66 ETOT(AU) -1.316702801027E+03 DETOT  1.14E-08 tst  1.49E-11 PX  1.66E-05
 TTTTTTTTTTTTTTTTTTTTTTTTTTTTTT FDIK        TELAPSE     1584.01 TCPU     1584.03
 INSULATING STATE - TOP OF VALENCE BANDS (A.U.) -8.4510915E-01
 TTTTTTTTTTTTTTTTTTTTTTTTTTTTTT PDIG        TELAPSE     1584.08 TCPU     1584.10
 CHARGE NORMALIZATION FACTOR   1.00000000
 TTTTTTTTTTTTTTTTTTTTTTTTTTTTTT MOQGAD      TELAPSE     1584.13 TCPU     1584.14
 TTTTTTTTTTTTTTTTTTTTTTTTTTTTTT SHELLX      TELAPSE     1602.02 TCPU     1602.03
 TTTTTTTTTTTTTTTTTTTTTTTTTTTTTT MONMO3      TELAPSE     1607.47 TCPU     1607.49
 CYC  67 ETOT(AU) -1.316702801016E+03 DETOT  1.04E-08 tst  1.30E-11 PX  1.56E-05
 TTTTTTTTTTTTTTTTTTTTTTTTTTTTTT FDIK        TELAPSE     1607.64 TCPU     1607.65
 INSULATING STATE - TOP OF VALENCE BANDS (A.U.) -8.4510920E-01
 TTTTTTTTTTTTTTTTTTTTTTTTTTTTTT PDIG        TELAPSE     1607.70 TCPU     1607.72
 CHARGE NORMALIZATION FACTOR   1.00000000
 TTTTTTTTTTTTTTTTTTTTTTTTTTTTTT MOQGAD      TELAPSE     1607.75 TCPU     1607.77
 TTTTTTTTTTTTTTTTTTTTTTTTTTTTTT SHELLX      TELAPSE     1625.64 TCPU     1625.66
 TTTTTTTTTTTTTTTTTTTTTTTTTTTTTT MONMO3      TELAPSE     1631.10 TCPU     1631.12
 CYC  68 ETOT(AU) -1.316702801007E+03 DETOT  9.63E-09 tst  1.14E-11 PX  1.46E-05
 TTTTTTTTTTTTTTTTTTTTTTTTTTTTTT FDIK        TELAPSE     1631.26 TCPU     1631.28
 INSULATING STATE - TOP OF VALENCE BANDS (A.U.) -8.4510925E-01
 TTTTTTTTTTTTTTTTTTTTTTTTTTTTTT PDIG        TELAPSE     1631.33 TCPU     1631.35
 CHARGE NORMALIZATION FACTOR   1.00000000
 TTTTTTTTTTTTTTTTTTTTTTTTTTTTTT MOQGAD      TELAPSE     1631.37 TCPU     1631.39
 TTTTTTTTTTTTTTTTTTTTTTTTTTTTTT SHELLX      TELAPSE     1649.26 TCPU     1649.28
 TTTTTTTTTTTTTTTTTTTTTTTTTTTTTT MONMO3      TELAPSE     1654.72 TCPU     1654.74
 CYC  69 ETOT(AU) -1.316702800998E+03 DETOT  8.89E-09 tst  9.95E-12 PX  1.37E-05
 TTTTTTTTTTTTTTTTTTTTTTTTTTTTTT FDIK        TELAPSE     1654.88 TCPU     1654.90
 INSULATING STATE - TOP OF VALENCE BANDS (A.U.) -8.4510930E-01
 TTTTTTTTTTTTTTTTTTTTTTTTTTTTTT PDIG        TELAPSE     1654.95 TCPU     1654.97
 CHARGE NORMALIZATION FACTOR   1.00000000
 TTTTTTTTTTTTTTTTTTTTTTTTTTTTTT MOQGAD      TELAPSE     1654.99 TCPU     1655.02
 TTTTTTTTTTTTTTTTTTTTTTTTTTTTTT SHELLX      TELAPSE     1672.89 TCPU     1672.91
 TTTTTTTTTTTTTTTTTTTTTTTTTTTTTT MONMO3      TELAPSE     1678.35 TCPU     1678.38
 CYC  70 ETOT(AU) -1.316702800989E+03 DETOT  8.47E-09 tst  8.69E-12 PX  1.28E-05
 TTTTTTTTTTTTTTTTTTTTTTTTTTTTTT FDIK        TELAPSE     1678.51 TCPU     1678.54
 INSULATING STATE - TOP OF VALENCE BANDS (A.U.) -8.4510934E-01
 TTTTTTTTTTTTTTTTTTTTTTTTTTTTTT PDIG        TELAPSE     1678.58 TCPU     1678.61
 CHARGE NORMALIZATION FACTOR   1.00000000
 TTTTTTTTTTTTTTTTTTTTTTTTTTTTTT MOQGAD      TELAPSE     1678.63 TCPU     1678.65
 TTTTTTTTTTTTTTTTTTTTTTTTTTTTTT SHELLX      TELAPSE     1696.52 TCPU     1696.54
 TTTTTTTTTTTTTTTTTTTTTTTTTTTTTT MONMO3      TELAPSE     1701.97 TCPU     1701.99
 CYC  71 ETOT(AU) -1.316702800982E+03 DETOT  7.63E-09 tst  7.59E-12 PX  1.20E-05
 TTTTTTTTTTTTTTTTTTTTTTTTTTTTTT FDIK        TELAPSE     1702.13 TCPU     1702.15
 INSULATING STATE - TOP OF VALENCE BANDS (A.U.) -8.4510938E-01
 TTTTTTTTTTTTTTTTTTTTTTTTTTTTTT PDIG        TELAPSE     1702.19 TCPU     1702.22
 CHARGE NORMALIZATION FACTOR   1.00000000
 TTTTTTTTTTTTTTTTTTTTTTTTTTTTTT MOQGAD      TELAPSE     1702.24 TCPU     1702.27
 TTTTTTTTTTTTTTTTTTTTTTTTTTTTTT SHELLX      TELAPSE     1720.13 TCPU     1720.16
 TTTTTTTTTTTTTTTTTTTTTTTTTTTTTT MONMO3      TELAPSE     1725.60 TCPU     1725.63
 CYC  72 ETOT(AU) -1.316702800975E+03 DETOT  7.17E-09 tst  6.64E-12 PX  1.13E-05
 TTTTTTTTTTTTTTTTTTTTTTTTTTTTTT FDIK        TELAPSE     1725.76 TCPU     1725.79
 INSULATING STATE - TOP OF VALENCE BANDS (A.U.) -8.4510942E-01
 TTTTTTTTTTTTTTTTTTTTTTTTTTTTTT PDIG        TELAPSE     1725.83 TCPU     1725.86
 CHARGE NORMALIZATION FACTOR   1.00000000
 TTTTTTTTTTTTTTTTTTTTTTTTTTTTTT MOQGAD      TELAPSE     1725.87 TCPU     1725.90
 TTTTTTTTTTTTTTTTTTTTTTTTTTTTTT SHELLX      TELAPSE     1743.76 TCPU     1743.79
 TTTTTTTTTTTTTTTTTTTTTTTTTTTTTT MONMO3      TELAPSE     1749.22 TCPU     1749.25
 CYC  73 ETOT(AU) -1.316702800968E+03 DETOT  6.60E-09 tst  5.80E-12 PX  1.06E-05
 TTTTTTTTTTTTTTTTTTTTTTTTTTTTTT FDIK        TELAPSE     1749.38 TCPU     1749.41
 INSULATING STATE - TOP OF VALENCE BANDS (A.U.) -8.4510945E-01
 TTTTTTTTTTTTTTTTTTTTTTTTTTTTTT PDIG        TELAPSE     1749.45 TCPU     1749.48
 CHARGE NORMALIZATION FACTOR   1.00000000
 TTTTTTTTTTTTTTTTTTTTTTTTTTTTTT MOQGAD      TELAPSE     1749.50 TCPU     1749.53
 TTTTTTTTTTTTTTTTTTTTTTTTTTTTTT SHELLX      TELAPSE     1767.39 TCPU     1767.42
 TTTTTTTTTTTTTTTTTTTTTTTTTTTTTT MONMO3      TELAPSE     1772.85 TCPU     1772.88
 CYC  74 ETOT(AU) -1.316702800962E+03 DETOT  6.27E-09 tst  5.07E-12 PX  9.90E-06
 TTTTTTTTTTTTTTTTTTTTTTTTTTTTTT FDIK        TELAPSE     1773.01 TCPU     1773.04
 INSULATING STATE - TOP OF VALENCE BANDS (A.U.) -8.4510949E-01
 TTTTTTTTTTTTTTTTTTTTTTTTTTTTTT PDIG        TELAPSE     1773.07 TCPU     1773.11
 CHARGE NORMALIZATION FACTOR   1.00000000
 TTTTTTTTTTTTTTTTTTTTTTTTTTTTTT MOQGAD      TELAPSE     1773.12 TCPU     1773.15
 TTTTTTTTTTTTTTTTTTTTTTTTTTTTTT SHELLX      TELAPSE     1791.01 TCPU     1791.04
 TTTTTTTTTTTTTTTTTTTTTTTTTTTTTT MONMO3      TELAPSE     1796.46 TCPU     1796.50
 CYC  75 ETOT(AU) -1.316702800956E+03 DETOT  5.78E-09 tst  4.43E-12 PX  9.28E-06
 TTTTTTTTTTTTTTTTTTTTTTTTTTTTTT FDIK        TELAPSE     1796.62 TCPU     1796.66
 INSULATING STATE - TOP OF VALENCE BANDS (A.U.) -8.4510952E-01
 TTTTTTTTTTTTTTTTTTTTTTTTTTTTTT PDIG        TELAPSE     1796.69 TCPU     1796.73
 CHARGE NORMALIZATION FACTOR   1.00000000
 TTTTTTTTTTTTTTTTTTTTTTTTTTTTTT MOQGAD      TELAPSE     1796.74 TCPU     1796.77
 TTTTTTTTTTTTTTTTTTTTTTTTTTTTTT SHELLX      TELAPSE     1814.63 TCPU     1814.66
 TTTTTTTTTTTTTTTTTTTTTTTTTTTTTT MONMO3      TELAPSE     1820.09 TCPU     1820.13
 CYC  76 ETOT(AU) -1.316702800951E+03 DETOT  5.30E-09 tst  3.87E-12 PX  8.70E-06
 TTTTTTTTTTTTTTTTTTTTTTTTTTTTTT FDIK        TELAPSE     1820.25 TCPU     1820.29
 INSULATING STATE - TOP OF VALENCE BANDS (A.U.) -8.4510954E-01
 TTTTTTTTTTTTTTTTTTTTTTTTTTTTTT PDIG        TELAPSE     1820.32 TCPU     1820.35
 CHARGE NORMALIZATION FACTOR   1.00000000
 TTTTTTTTTTTTTTTTTTTTTTTTTTTTTT MOQGAD      TELAPSE     1820.36 TCPU     1820.40
 TTTTTTTTTTTTTTTTTTTTTTTTTTTTTT SHELLX      TELAPSE     1838.25 TCPU     1838.29
 TTTTTTTTTTTTTTTTTTTTTTTTTTTTTT MONMO3      TELAPSE     1843.71 TCPU     1843.75
 CYC  77 ETOT(AU) -1.316702800946E+03 DETOT  4.92E-09 tst  3.38E-12 PX  8.14E-06
 TTTTTTTTTTTTTTTTTTTTTTTTTTTTTT FDIK        TELAPSE     1843.86 TCPU     1843.90
 INSULATING STATE - TOP OF VALENCE BANDS (A.U.) -8.4510957E-01
 TTTTTTTTTTTTTTTTTTTTTTTTTTTTTT PDIG        TELAPSE     1843.93 TCPU     1843.97
 CHARGE NORMALIZATION FACTOR   1.00000000
 TTTTTTTTTTTTTTTTTTTTTTTTTTTTTT MOQGAD      TELAPSE     1843.98 TCPU     1844.02
 TTTTTTTTTTTTTTTTTTTTTTTTTTTTTT SHELLX      TELAPSE     1861.87 TCPU     1861.91
 TTTTTTTTTTTTTTTTTTTTTTTTTTTTTT MONMO3      TELAPSE     1867.33 TCPU     1867.38
 CYC  78 ETOT(AU) -1.316702800941E+03 DETOT  4.66E-09 tst  2.95E-12 PX  7.63E-06
 TTTTTTTTTTTTTTTTTTTTTTTTTTTTTT FDIK        TELAPSE     1867.49 TCPU     1867.53
 INSULATING STATE - TOP OF VALENCE BANDS (A.U.) -8.4510960E-01
 TTTTTTTTTTTTTTTTTTTTTTTTTTTTTT PDIG        TELAPSE     1867.56 TCPU     1867.60
 CHARGE NORMALIZATION FACTOR   1.00000000
 TTTTTTTTTTTTTTTTTTTTTTTTTTTTTT MOQGAD      TELAPSE     1867.60 TCPU     1867.64
 TTTTTTTTTTTTTTTTTTTTTTTTTTTTTT SHELLX      TELAPSE     1885.49 TCPU     1885.53
 TTTTTTTTTTTTTTTTTTTTTTTTTTTTTT MONMO3      TELAPSE     1890.95 TCPU     1890.99
 CYC  79 ETOT(AU) -1.316702800937E+03 DETOT  4.26E-09 tst  2.58E-12 PX  7.15E-06
 TTTTTTTTTTTTTTTTTTTTTTTTTTTTTT FDIK        TELAPSE     1891.10 TCPU     1891.15
 INSULATING STATE - TOP OF VALENCE BANDS (A.U.) -8.4510962E-01
 TTTTTTTTTTTTTTTTTTTTTTTTTTTTTT PDIG        TELAPSE     1891.17 TCPU     1891.21
 CHARGE NORMALIZATION FACTOR   1.00000000
 TTTTTTTTTTTTTTTTTTTTTTTTTTTTTT MOQGAD      TELAPSE     1891.22 TCPU     1891.26
 TTTTTTTTTTTTTTTTTTTTTTTTTTTTTT SHELLX      TELAPSE     1909.11 TCPU     1909.15
 TTTTTTTTTTTTTTTTTTTTTTTTTTTTTT MONMO3      TELAPSE     1914.57 TCPU     1914.61
 CYC  80 ETOT(AU) -1.316702800933E+03 DETOT  4.29E-09 tst  2.25E-12 PX  6.69E-06
 TTTTTTTTTTTTTTTTTTTTTTTTTTTTTT FDIK        TELAPSE     1914.72 TCPU     1914.76
 INSULATING STATE - TOP OF VALENCE BANDS (A.U.) -8.4510964E-01
 TTTTTTTTTTTTTTTTTTTTTTTTTTTTTT PDIG        TELAPSE     1914.79 TCPU     1914.83
 CHARGE NORMALIZATION FACTOR   1.00000000
 TTTTTTTTTTTTTTTTTTTTTTTTTTTTTT MOQGAD      TELAPSE     1914.83 TCPU     1914.88
 TTTTTTTTTTTTTTTTTTTTTTTTTTTTTT SHELLX      TELAPSE     1932.72 TCPU     1932.77
 TTTTTTTTTTTTTTTTTTTTTTTTTTTTTT MONMO3      TELAPSE     1938.17 TCPU     1938.22
 CYC  81 ETOT(AU) -1.316702800929E+03 DETOT  3.66E-09 tst  1.97E-12 PX  6.28E-06
 TTTTTTTTTTTTTTTTTTTTTTTTTTTTTT FDIK        TELAPSE     1938.33 TCPU     1938.37
 INSULATING STATE - TOP OF VALENCE BANDS (A.U.) -8.4510966E-01
 TTTTTTTTTTTTTTTTTTTTTTTTTTTTTT PDIG        TELAPSE     1938.39 TCPU     1938.44
 CHARGE NORMALIZATION FACTOR   1.00000000
 TTTTTTTTTTTTTTTTTTTTTTTTTTTTTT MOQGAD      TELAPSE     1938.44 TCPU     1938.49
 TTTTTTTTTTTTTTTTTTTTTTTTTTTTTT SHELLX      TELAPSE     1956.33 TCPU     1956.38
 TTTTTTTTTTTTTTTTTTTTTTTTTTTTTT MONMO3      TELAPSE     1961.80 TCPU     1961.85
 CYC  82 ETOT(AU) -1.316702800926E+03 DETOT  3.35E-09 tst  1.72E-12 PX  5.88E-06
 TTTTTTTTTTTTTTTTTTTTTTTTTTTTTT FDIK        TELAPSE     1961.95 TCPU     1962.00
 INSULATING STATE - TOP OF VALENCE BANDS (A.U.) -8.4510968E-01
 TTTTTTTTTTTTTTTTTTTTTTTTTTTTTT PDIG        TELAPSE     1962.02 TCPU     1962.07
 CHARGE NORMALIZATION FACTOR   1.00000000
 TTTTTTTTTTTTTTTTTTTTTTTTTTTTTT MOQGAD      TELAPSE     1962.07 TCPU     1962.12
 TTTTTTTTTTTTTTTTTTTTTTTTTTTTTT SHELLX      TELAPSE     1979.96 TCPU     1980.01
 TTTTTTTTTTTTTTTTTTTTTTTTTTTTTT MONMO3      TELAPSE     1985.40 TCPU     1985.46
 CYC  83 ETOT(AU) -1.316702800922E+03 DETOT  3.20E-09 tst  1.50E-12 PX  5.51E-06
 TTTTTTTTTTTTTTTTTTTTTTTTTTTTTT FDIK        TELAPSE     1985.55 TCPU     1985.60
 INSULATING STATE - TOP OF VALENCE BANDS (A.U.) -8.4510970E-01
 TTTTTTTTTTTTTTTTTTTTTTTTTTTTTT PDIG        TELAPSE     1985.62 TCPU     1985.67
 CHARGE NORMALIZATION FACTOR   1.00000000
 TTTTTTTTTTTTTTTTTTTTTTTTTTTTTT MOQGAD      TELAPSE     1985.67 TCPU     1985.72
 TTTTTTTTTTTTTTTTTTTTTTTTTTTTTT SHELLX      TELAPSE     2003.56 TCPU     2003.61
 TTTTTTTTTTTTTTTTTTTTTTTTTTTTTT MONMO3      TELAPSE     2009.02 TCPU     2009.07
 CYC  84 ETOT(AU) -1.316702800919E+03 DETOT  3.34E-09 tst  1.32E-12 PX  5.15E-06
 TTTTTTTTTTTTTTTTTTTTTTTTTTTTTT FDIK        TELAPSE     2009.16 TCPU     2009.21
 INSULATING STATE - TOP OF VALENCE BANDS (A.U.) -8.4510971E-01
 TTTTTTTTTTTTTTTTTTTTTTTTTTTTTT PDIG        TELAPSE     2009.23 TCPU     2009.28
 CHARGE NORMALIZATION FACTOR   1.00000000
 TTTTTTTTTTTTTTTTTTTTTTTTTTTTTT MOQGAD      TELAPSE     2009.28 TCPU     2009.33
 TTTTTTTTTTTTTTTTTTTTTTTTTTTTTT SHELLX      TELAPSE     2027.17 TCPU     2027.22
 TTTTTTTTTTTTTTTTTTTTTTTTTTTTTT MONMO3      TELAPSE     2032.63 TCPU     2032.68
 CYC  85 ETOT(AU) -1.316702800917E+03 DETOT  2.42E-09 tst  1.15E-12 PX  4.84E-06
 TTTTTTTTTTTTTTTTTTTTTTTTTTTTTT FDIK        TELAPSE     2032.77 TCPU     2032.83
 INSULATING STATE - TOP OF VALENCE BANDS (A.U.) -8.4510973E-01
 TTTTTTTTTTTTTTTTTTTTTTTTTTTTTT PDIG        TELAPSE     2032.84 TCPU     2032.90
 CHARGE NORMALIZATION FACTOR   1.00000000
 TTTTTTTTTTTTTTTTTTTTTTTTTTTTTT MOQGAD      TELAPSE     2032.89 TCPU     2032.94
 TTTTTTTTTTTTTTTTTTTTTTTTTTTTTT SHELLX      TELAPSE     2050.78 TCPU     2050.83
 TTTTTTTTTTTTTTTTTTTTTTTTTTTTTT MONMO3      TELAPSE     2056.24 TCPU     2056.29
 CYC  86 ETOT(AU) -1.316702800914E+03 DETOT  2.71E-09 tst  1.01E-12 PX  4.53E-06
 TTTTTTTTTTTTTTTTTTTTTTTTTTTTTT FDIK        TELAPSE     2056.38 TCPU     2056.44
 INSULATING STATE - TOP OF VALENCE BANDS (A.U.) -8.4510974E-01
 TTTTTTTTTTTTTTTTTTTTTTTTTTTTTT PDIG        TELAPSE     2056.45 TCPU     2056.50
 CHARGE NORMALIZATION FACTOR   1.00000000
 TTTTTTTTTTTTTTTTTTTTTTTTTTTTTT MOQGAD      TELAPSE     2056.49 TCPU     2056.55
 TTTTTTTTTTTTTTTTTTTTTTTTTTTTTT SHELLX      TELAPSE     2074.38 TCPU     2074.44
 TTTTTTTTTTTTTTTTTTTTTTTTTTTTTT MONMO3      TELAPSE     2079.84 TCPU     2079.90
 CYC  87 ETOT(AU) -1.316702800912E+03 DETOT  2.14E-09 tst  8.79E-13 PX  4.26E-06
 TTTTTTTTTTTTTTTTTTTTTTTTTTTTTT FDIK        TELAPSE     2079.99 TCPU     2080.05
 INSULATING STATE - TOP OF VALENCE BANDS (A.U.) -8.4510976E-01
 TTTTTTTTTTTTTTTTTTTTTTTTTTTTTT PDIG        TELAPSE     2080.06 TCPU     2080.12
 CHARGE NORMALIZATION FACTOR   1.00000000
 TTTTTTTTTTTTTTTTTTTTTTTTTTTTTT MOQGAD      TELAPSE     2080.11 TCPU     2080.17
 TTTTTTTTTTTTTTTTTTTTTTTTTTTTTT SHELLX      TELAPSE     2098.00 TCPU     2098.06
 TTTTTTTTTTTTTTTTTTTTTTTTTTTTTT MONMO3      TELAPSE     2103.46 TCPU     2103.52
 CYC  88 ETOT(AU) -1.316702800909E+03 DETOT  2.47E-09 tst  7.71E-13 PX  3.98E-06
 TTTTTTTTTTTTTTTTTTTTTTTTTTTTTT FDIK        TELAPSE     2103.60 TCPU     2103.66
 INSULATING STATE - TOP OF VALENCE BANDS (A.U.) -8.4510977E-01
 TTTTTTTTTTTTTTTTTTTTTTTTTTTTTT PDIG        TELAPSE     2103.67 TCPU     2103.73
 CHARGE NORMALIZATION FACTOR   1.00000000
 TTTTTTTTTTTTTTTTTTTTTTTTTTTTTT MOQGAD      TELAPSE     2103.72 TCPU     2103.78
 TTTTTTTTTTTTTTTTTTTTTTTTTTTTTT SHELLX      TELAPSE     2121.61 TCPU     2121.67
 TTTTTTTTTTTTTTTTTTTTTTTTTTTTTT MONMO3      TELAPSE     2127.06 TCPU     2127.12
 CYC  89 ETOT(AU) -1.316702800907E+03 DETOT  1.88E-09 tst  6.74E-13 PX  3.74E-06
 TTTTTTTTTTTTTTTTTTTTTTTTTTTTTT FDIK        TELAPSE     2127.21 TCPU     2127.27
 INSULATING STATE - TOP OF VALENCE BANDS (A.U.) -8.4510978E-01
 TTTTTTTTTTTTTTTTTTTTTTTTTTTTTT PDIG        TELAPSE     2127.28 TCPU     2127.34
 CHARGE NORMALIZATION FACTOR   1.00000000
 TTTTTTTTTTTTTTTTTTTTTTTTTTTTTT MOQGAD      TELAPSE     2127.32 TCPU     2127.39
 TTTTTTTTTTTTTTTTTTTTTTTTTTTTTT SHELLX      TELAPSE     2145.21 TCPU     2145.28
 TTTTTTTTTTTTTTTTTTTTTTTTTTTTTT MONMO3      TELAPSE     2150.68 TCPU     2150.75
 CYC  90 ETOT(AU) -1.316702800905E+03 DETOT  2.09E-09 tst  5.93E-13 PX  3.49E-06
 TTTTTTTTTTTTTTTTTTTTTTTTTTTTTT FDIK        TELAPSE     2150.83 TCPU     2150.90
 INSULATING STATE - TOP OF VALENCE BANDS (A.U.) -8.4510979E-01
 TTTTTTTTTTTTTTTTTTTTTTTTTTTTTT PDIG        TELAPSE     2150.90 TCPU     2150.96
 CHARGE NORMALIZATION FACTOR   1.00000000
 TTTTTTTTTTTTTTTTTTTTTTTTTTTTTT MOQGAD      TELAPSE     2150.94 TCPU     2151.01
 TTTTTTTTTTTTTTTTTTTTTTTTTTTTTT SHELLX      TELAPSE     2168.83 TCPU     2168.90
 TTTTTTTTTTTTTTTTTTTTTTTTTTTTTT MONMO3      TELAPSE     2174.29 TCPU     2174.36
 CYC  91 ETOT(AU) -1.316702800904E+03 DETOT  1.72E-09 tst  5.16E-13 PX  3.29E-06
 TTTTTTTTTTTTTTTTTTTTTTTTTTTTTT FDIK        TELAPSE     2174.44 TCPU     2174.51
 INSULATING STATE - TOP OF VALENCE BANDS (A.U.) -8.4510981E-01
 TTTTTTTTTTTTTTTTTTTTTTTTTTTTTT PDIG        TELAPSE     2174.51 TCPU     2174.58
 CHARGE NORMALIZATION FACTOR   1.00000000
 TTTTTTTTTTTTTTTTTTTTTTTTTTTTTT MOQGAD      TELAPSE     2174.56 TCPU     2174.62
 TTTTTTTTTTTTTTTTTTTTTTTTTTTTTT SHELLX      TELAPSE     2192.45 TCPU     2192.51
 TTTTTTTTTTTTTTTTTTTTTTTTTTTTTT MONMO3      TELAPSE     2197.91 TCPU     2197.98
 CYC  92 ETOT(AU) -1.316702800902E+03 DETOT  1.84E-09 tst  4.53E-13 PX  3.07E-06
 TTTTTTTTTTTTTTTTTTTTTTTTTTTTTT FDIK        TELAPSE     2198.05 TCPU     2198.12
 INSULATING STATE - TOP OF VALENCE BANDS (A.U.) -8.4510981E-01
 TTTTTTTTTTTTTTTTTTTTTTTTTTTTTT PDIG        TELAPSE     2198.12 TCPU     2198.19
 CHARGE NORMALIZATION FACTOR   1.00000000
 TTTTTTTTTTTTTTTTTTTTTTTTTTTTTT MOQGAD      TELAPSE     2198.17 TCPU     2198.23
 TTTTTTTTTTTTTTTTTTTTTTTTTTTTTT SHELLX      TELAPSE     2216.06 TCPU     2216.13
 TTTTTTTTTTTTTTTTTTTTTTTTTTTTTT MONMO3      TELAPSE     2221.51 TCPU     2221.58
 CYC  93 ETOT(AU) -1.316702800900E+03 DETOT  1.41E-09 tst  3.97E-13 PX  2.89E-06
 TTTTTTTTTTTTTTTTTTTTTTTTTTTTTT FDIK        TELAPSE     2221.66 TCPU     2221.73
 INSULATING STATE - TOP OF VALENCE BANDS (A.U.) -8.4510982E-01
 TTTTTTTTTTTTTTTTTTTTTTTTTTTTTT PDIG        TELAPSE     2221.73 TCPU     2221.80
 CHARGE NORMALIZATION FACTOR   1.00000000
 TTTTTTTTTTTTTTTTTTTTTTTTTTTTTT MOQGAD      TELAPSE     2221.77 TCPU     2221.84
 TTTTTTTTTTTTTTTTTTTTTTTTTTTTTT SHELLX      TELAPSE     2239.66 TCPU     2239.74
 TTTTTTTTTTTTTTTTTTTTTTTTTTTTTT MONMO3      TELAPSE     2245.13 TCPU     2245.20
 CYC  94 ETOT(AU) -1.316702800899E+03 DETOT  1.74E-09 tst  3.47E-13 PX  2.69E-06
 TTTTTTTTTTTTTTTTTTTTTTTTTTTTTT FDIK        TELAPSE     2245.27 TCPU     2245.34
 INSULATING STATE - TOP OF VALENCE BANDS (A.U.) -8.4510983E-01
 TTTTTTTTTTTTTTTTTTTTTTTTTTTTTT PDIG        TELAPSE     2245.34 TCPU     2245.41
 CHARGE NORMALIZATION FACTOR   1.00000000
 TTTTTTTTTTTTTTTTTTTTTTTTTTTTTT MOQGAD      TELAPSE     2245.39 TCPU     2245.46
 TTTTTTTTTTTTTTTTTTTTTTTTTTTTTT SHELLX      TELAPSE     2263.28 TCPU     2263.35
 TTTTTTTTTTTTTTTTTTTTTTTTTTTTTT MONMO3      TELAPSE     2268.73 TCPU     2268.80
 CYC  95 ETOT(AU) -1.316702800897E+03 DETOT  1.15E-09 tst  3.03E-13 PX  2.54E-06
 TTTTTTTTTTTTTTTTTTTTTTTTTTTTTT FDIK        TELAPSE     2268.86 TCPU     2268.94
 INSULATING STATE - TOP OF VALENCE BANDS (A.U.) -8.4510984E-01
 TTTTTTTTTTTTTTTTTTTTTTTTTTTTTT PDIG        TELAPSE     2268.93 TCPU     2269.01
 CHARGE NORMALIZATION FACTOR   1.00000000
 TTTTTTTTTTTTTTTTTTTTTTTTTTTTTT MOQGAD      TELAPSE     2268.98 TCPU     2269.05
 TTTTTTTTTTTTTTTTTTTTTTTTTTTTTT SHELLX      TELAPSE     2286.87 TCPU     2286.95
 TTTTTTTTTTTTTTTTTTTTTTTTTTTTTT MONMO3      TELAPSE     2292.33 TCPU     2292.41
 CYC  96 ETOT(AU) -1.316702800896E+03 DETOT  1.60E-09 tst  2.66E-13 PX  2.34E-06
 TTTTTTTTTTTTTTTTTTTTTTTTTTTTTT FDIK        TELAPSE     2292.47 TCPU     2292.55
 INSULATING STATE - TOP OF VALENCE BANDS (A.U.) -8.4510985E-01
 TTTTTTTTTTTTTTTTTTTTTTTTTTTTTT PDIG        TELAPSE     2292.54 TCPU     2292.62
 CHARGE NORMALIZATION FACTOR   1.00000000
 TTTTTTTTTTTTTTTTTTTTTTTTTTTTTT MOQGAD      TELAPSE     2292.58 TCPU     2292.66
 TTTTTTTTTTTTTTTTTTTTTTTTTTTTTT SHELLX      TELAPSE     2310.49 TCPU     2310.56
 TTTTTTTTTTTTTTTTTTTTTTTTTTTTTT MONMO3      TELAPSE     2315.96 TCPU     2316.03
 CYC  97 ETOT(AU) -1.316702800895E+03 DETOT  1.20E-09 tst  2.30E-13 PX  2.18E-06
 TTTTTTTTTTTTTTTTTTTTTTTTTTTTTT FDIK        TELAPSE     2316.10 TCPU     2316.17
[...]
    2-   3   -0.2485E-11     -0.3460   -0.0104  (E  )   A (     0.00)   A
    4-   5    0.4283E-06    143.6263    4.3058  (E  )   A (     0.00)   A
    6-   6    0.1002E-05    219.7171    6.5870  (A1 )   I (     0.00)   A
    7-   8    0.1706E-05    286.6552    8.5937  (E  )   A (     0.00)   A
    9-   9    0.3054E-05    383.5425   11.4983  (A1 )   I (     0.00)   A
   10-  10    0.3251E-05    395.6940   11.8626  (A2 )   A (     0.00)   I
   11-  12    0.3811E-05    428.4689   12.8452  (E  )   A (     0.00)   A
   13-  14    0.5039E-05    492.6824   14.7702  (E  )   A (     0.00)   A
   15-  15    0.5254E-05    503.0592   15.0813  (A1 )   I (     0.00)   A
   16-  16    0.6169E-05    545.1392   16.3429  (A2 )   A (     0.00)   I
   17-  18    0.1141E-04    741.4355   22.2277  (E  )   A (     0.00)   A
   19-  19    0.1411E-04    824.4370   24.7160  (A2 )   A (     0.00)   I
   20-  21    0.1493E-04    848.1478   25.4268  (E  )   A (     0.00)   A
   22-  23    0.2630E-04   1125.4837   33.7412  (E  )   A (     0.00)   A
   24-  24    0.2660E-04   1132.0128   33.9369  (A2 )   A (     0.00)   I
   25-  25    0.2700E-04   1140.4730   34.1905  (A1 )   I (     0.00)   A
   26-  27    0.3165E-04   1234.6791   37.0147  (E  )   A (     0.00)   A

 NORMAL MODES NORMALIZED TO CLASSICAL AMPLITUDES

 FREQ(CM**-1)     -1.89     -0.35     -0.35    143.63    143.63    219.72

 AT.   1 SI X    -0.0003   -1.2041   -0.6952   -0.0178    0.0116    0.0304
            Y    -0.0005    0.6952   -1.2041    0.0103    0.0201   -0.0176
            Z     0.5954    0.0000    0.0006    0.0000    0.0086    0.0000
 AT.   2 SI X     0.0006   -1.2041   -0.6952    0.0201    0.0116    0.0000
            Y     0.0000    0.6952   -1.2041    0.0103   -0.0178    0.0351
            Z     0.5954   -0.0006   -0.0003   -0.0075   -0.0043    0.0000
 AT.   3 SI X    -0.0003   -1.2041   -0.6952    0.0011   -0.0212   -0.0304
            Y     0.0005    0.6952   -1.2041   -0.0225    0.0011   -0.0176
            Z     0.5954    0.0006   -0.0003    0.0075   -0.0043    0.0000
 AT.   4 O  X    -0.0010   -1.2055   -0.6953   -0.0771    0.0076   -0.0144
            Y    -0.0008    0.6953   -1.2044   -0.0258    0.0553   -0.0530
            Z     0.5939    0.0013   -0.0004    0.0509   -0.0651    0.0402
 AT.   5 O  X     0.0012   -1.2047   -0.6948    0.0143    0.0786    0.0531
            Y    -0.0005    0.6958   -1.2052    0.0452   -0.0361    0.0140
            Z     0.5939   -0.0003    0.0013    0.0309    0.0767    0.0402
 AT.   6 O  X    -0.0001   -1.2047   -0.6958    0.0301   -0.0361   -0.0386
            Y     0.0013    0.6948   -1.2052   -0.0695   -0.0519    0.0390
            Z     0.5939   -0.0010   -0.0009   -0.0818   -0.0116    0.0402
 AT.   7 O  X    -0.0001   -1.2049   -0.6954   -0.0162    0.0441    0.0386
            Y    -0.0013    0.6963   -1.2044    0.0797    0.0342    0.0390
            Z     0.5939   -0.0013   -0.0004   -0.0509   -0.0651   -0.0402
 AT.   8 O  X    -0.0010   -1.2049   -0.6963   -0.0320   -0.0706    0.0144
            Y     0.0008    0.6954   -1.2044   -0.0350    0.0500   -0.0530
            Z     0.5939    0.0003    0.0013   -0.0309    0.0767   -0.0402
 AT.   9 O  X     0.0012   -1.2041   -0.6959    0.0752   -0.0269   -0.0531
            Y     0.0005    0.6958   -1.2052    0.0087   -0.0572    0.0140
            Z     0.5939    0.0010   -0.0009    0.0818   -0.0116   -0.0402

 FREQ(CM**-1)    286.66    286.66    383.54    395.69    428.47    428.47

 AT.   1 SI X    -0.0020    0.0066   -0.0390    0.0033   -0.0097    0.0182
            Y     0.0012    0.0114    0.0225    0.0057    0.0056    0.0314
            Z     0.0000    0.0284    0.0000    0.0195    0.0000   -0.0221
 AT.   2 SI X     0.0114    0.0066    0.0000   -0.0066    0.0314    0.0182
            Y     0.0012   -0.0020   -0.0450    0.0000    0.0056   -0.0097
            Z    -0.0246   -0.0142    0.0000    0.0195    0.0192    0.0111
 AT.   3 SI X     0.0047   -0.0050    0.0390    0.0033    0.0109   -0.0175
            Y    -0.0104    0.0047    0.0225   -0.0057   -0.0300    0.0109
            Z     0.0246   -0.0142    0.0000    0.0195   -0.0192    0.0111
 AT.   4 O  X     0.0191   -0.0789   -0.0203    0.0458   -0.0151   -0.0268
            Y    -0.0150    0.0069    0.0043    0.0203    0.0230    0.0184
            Z     0.0300    0.0115    0.0327   -0.0170   -0.0482   -0.0046
 AT.   5 O  X    -0.0307   -0.0137    0.0065   -0.0405    0.0084   -0.0095
            Y     0.0501    0.0567   -0.0197    0.0295    0.0404   -0.0051
            Z    -0.0249    0.0202    0.0327   -0.0170    0.0281   -0.0394
 AT.   6 O  X     0.0506   -0.0032    0.0139   -0.0053    0.0117   -0.0385
            Y     0.0607   -0.0246    0.0155   -0.0498    0.0114   -0.0083
            Z    -0.0050   -0.0317    0.0327   -0.0170    0.0201    0.0441
 AT.   7 O  X     0.0226    0.0454   -0.0139   -0.0053   -0.0275    0.0294
            Y    -0.0090   -0.0649    0.0155    0.0498    0.0015   -0.0140
            Z    -0.0300    0.0115   -0.0327   -0.0170    0.0482   -0.0046
 AT.   8 O  X    -0.0588    0.0560    0.0203    0.0458   -0.0308    0.0004
            Y     0.0015    0.0165    0.0043   -0.0203   -0.0275   -0.0107
            Z     0.0249    0.0202   -0.0327   -0.0170   -0.0281   -0.0394
 AT.   9 O  X    -0.0272   -0.0198   -0.0065   -0.0405   -0.0040    0.0120
            Y    -0.0742   -0.0151   -0.0197   -0.0295   -0.0158   -0.0375
            Z     0.0050   -0.0317   -0.0327   -0.0170   -0.0201    0.0441

 FREQ(CM**-1)    492.68    492.68    503.06    545.14    741.44    741.44

 AT.   1 SI X    -0.0152   -0.0138   -0.0107   -0.0074   -0.0073    0.0083
            Y     0.0088   -0.0239    0.0062   -0.0128    0.0042    0.0144
            Z     0.0000    0.0130    0.0000   -0.0203    0.0000    0.0494
 AT.   2 SI X    -0.0239   -0.0138    0.0000    0.0148    0.0144    0.0083
            Y     0.0088   -0.0152   -0.0123    0.0000    0.0042   -0.0073
            Z    -0.0113   -0.0065    0.0000   -0.0203   -0.0428   -0.0247
 AT.   3 SI X    -0.0196   -0.0063    0.0107   -0.0074    0.0035   -0.0105
            Y     0.0163   -0.0196    0.0062    0.0128   -0.0145    0.0035
            Z     0.0113   -0.0065    0.0000   -0.0203    0.0428   -0.0247
 AT.   4 O  X     0.0365   -0.0025    0.0456    0.0275   -0.0048    0.0137
            Y     0.0151    0.0192   -0.0085   -0.0260    0.0242    0.0027
            Z    -0.0111   -0.0441    0.0146    0.0178   -0.0018    0.0118
 AT.   5 O  X     0.0290   -0.0195   -0.0154    0.0088    0.0173   -0.0115
            Y    -0.0019    0.0267    0.0437    0.0369   -0.0009   -0.0193
            Z     0.0438    0.0125    0.0146    0.0178   -0.0093   -0.0075
 AT.   6 O  X     0.0181   -0.0044   -0.0301   -0.0363   -0.0156   -0.0180
            Y     0.0131    0.0377   -0.0352   -0.0108   -0.0075    0.0135
            Z    -0.0327    0.0317    0.0146    0.0178    0.0111   -0.0043
 AT.   7 O  X     0.0052    0.0179    0.0301   -0.0363   -0.0234   -0.0045
            Y    -0.0392    0.0075   -0.0352    0.0108   -0.0079    0.0132
            Z     0.0111   -0.0441   -0.0146    0.0178    0.0018    0.0118
 AT.   8 O  X     0.0161    0.0329   -0.0456    0.0275    0.0094   -0.0110
            Y    -0.0242   -0.0035   -0.0085    0.0260   -0.0145   -0.0196
            Z    -0.0438    0.0125   -0.0146    0.0178    0.0093   -0.0075
 AT.   9 O  X    -0.0023    0.0348    0.0154    0.0088   -0.0013    0.0207
            Y    -0.0222    0.0150    0.0437   -0.0369    0.0172   -0.0089
            Z     0.0327    0.0317   -0.0146    0.0178   -0.0111   -0.0043

 FREQ(CM**-1)    824.44    848.15    848.15   1125.48   1125.48   1132.01

 AT.   1 SI X     0.0196   -0.0393    0.0107   -0.0094   -0.0107    0.0025
            Y     0.0340    0.0227    0.0185    0.0054   -0.0186    0.0042
            Z    -0.0094    0.0000   -0.0107    0.0000    0.0054    0.0167
 AT.   2 SI X    -0.0393    0.0185    0.0107   -0.0186   -0.0107   -0.0049
            Y     0.0000    0.0227   -0.0393    0.0054   -0.0094    0.0000
            Z    -0.0094    0.0093    0.0054   -0.0047   -0.0027    0.0167
 AT.   3 SI X     0.0196   -0.0104   -0.0393   -0.0140   -0.0028    0.0025
            Y    -0.0340   -0.0273   -0.0104    0.0134   -0.0140   -0.0042
            Z    -0.0094   -0.0093    0.0054    0.0047   -0.0027    0.0167
 AT.   4 O  X     0.0034    0.0166    0.0107   -0.0049    0.0015   -0.0012
            Y    -0.0038   -0.0119   -0.0053   -0.0168    0.0270   -0.0250
            Z     0.0083    0.0081    0.0061   -0.0132    0.0221   -0.0147
 AT.   5 O  X     0.0016   -0.0004    0.0021    0.0124    0.0267    0.0223
            Y     0.0048   -0.0204    0.0116    0.0085    0.0097    0.0115
            Z     0.0083   -0.0093    0.0040   -0.0126   -0.0225   -0.0147
 AT.   6 O  X    -0.0050    0.0007    0.0211    0.0256   -0.0008   -0.0211
            Y    -0.0010   -0.0015    0.0105   -0.0191   -0.0035    0.0135
            Z     0.0083    0.0012   -0.0101    0.0258    0.0004   -0.0147
 AT.   7 O  X    -0.0050    0.0186   -0.0099    0.0121    0.0226   -0.0211
            Y     0.0010   -0.0084    0.0066    0.0126    0.0147   -0.0135
            Z     0.0083   -0.0081    0.0061    0.0132    0.0221   -0.0147
 AT.   8 O  X     0.0034    0.0175    0.0090   -0.0012   -0.0049   -0.0012
            Y     0.0038    0.0106    0.0076   -0.0150    0.0280    0.0250
            Z     0.0083    0.0093    0.0040    0.0126   -0.0225   -0.0147
 AT.   9 O  X     0.0016    0.0016   -0.0014    0.0293   -0.0026    0.0223
            Y    -0.0048    0.0002    0.0235   -0.0127   -0.0025   -0.0115
            Z     0.0083   -0.0012   -0.0101   -0.0258    0.0004   -0.0147

 FREQ(CM**-1)   1140.47   1234.68   1234.68

 AT.   1 SI X     0.0143   -0.0006   -0.0024
            Y    -0.0083    0.0003   -0.0041
            Z     0.0000    0.0000   -0.0178
 AT.   2 SI X     0.0000   -0.0041   -0.0024
            Y     0.0165    0.0003   -0.0006
            Z     0.0000    0.0155    0.0089
 AT.   3 SI X    -0.0143   -0.0023    0.0007
            Y    -0.0083    0.0034   -0.0023
            Z     0.0000   -0.0155    0.0089
 AT.   4 O  X     0.0023    0.0036    0.0008
            Y     0.0228    0.0280    0.0175
            Z     0.0183    0.0214    0.0130
 AT.   5 O  X    -0.0209    0.0265   -0.0148
            Y    -0.0094    0.0124   -0.0054
            Z     0.0183   -0.0220    0.0121
 AT.   6 O  X     0.0186    0.0016   -0.0268
            Y    -0.0134    0.0004    0.0196
            Z     0.0183    0.0005   -0.0251
 AT.   7 O  X    -0.0186   -0.0225    0.0148
            Y    -0.0134   -0.0172    0.0095
            Z    -0.0183   -0.0214    0.0130
 AT.   8 O  X    -0.0023    0.0025    0.0027
            Y     0.0228   -0.0292   -0.0155
            Z    -0.0183    0.0220    0.0121
 AT.   9 O  X     0.0209    0.0004    0.0304
            Y    -0.0094   -0.0015   -0.0134
            Z    -0.0183   -0.0005   -0.0251

 *******************************************************************************

 VIBRATIONAL TEMPERATURES (K) [MODE NUMBER;IRREP]

 TO MODES
   206.6 [   4;E  ]   206.6 [   5;E  ]   316.1 [   6;A1 ]   412.4 [   7;E  ]
   412.4 [   8;E  ]   551.8 [   9;A1 ]   569.3 [  10;A2 ]   616.5 [  11;E  ]
   616.5 [  12;E  ]   708.9 [  13;E  ]   708.9 [  14;E  ]   723.8 [  15;A1 ]
   784.3 [  16;A2 ]  1066.8 [  17;E  ]  1066.8 [  18;E  ]  1186.2 [  19;A2 ]
  1220.3 [  20;E  ]  1220.3 [  21;E  ]  1619.3 [  22;E  ]  1619.3 [  23;E  ]
  1628.7 [  24;A2 ]  1640.9 [  25;A1 ]  1776.4 [  26;E  ]  1776.4 [  27;E  ]

 *******************************************************************************

 HARMONIC VIBRATIONAL CONTRIBUTIONS TO THERMODYNAMIC FUNCTIONS AT GIVEN
 TEMPERATURE AND PRESSURE:

 (EL = ELECTRONIC ENERGY
  E0 = ZERO-POINT ENERGY
  ET = THERMAL CONTRIBUTION TO THE VIBRATIONAL ENERGY
  PV = PRESSURE * VOLUME
  TS = TEMPERATURE * ENTROPY)

                          AU/CELL             EV/CELL                 KJ/MOL
 EL            :   -1316.702800891459  -35829.304738911364    -3457002.71656049
 E0            :       0.035873013240       0.976154316995          94.18458299


 *******************************************************************************

 THERMODYNAMIC FUNCTIONS WITH VIBRATIONAL CONTRIBUTIONS

 AT (T =  298.15 K, P =   0.10132500E+00 MPA):

                          AU/CELL             EV/CELL                 KJ/MOL
 ET            :       0.005306548296       0.144398520226          13.93234059
 PV            :       0.000000000000       0.000000000000           0.00000000
 TS            :       0.008596146154       0.233913028746          22.56917855
 ET+PV-TS      :      -0.003289597857      -0.089514508521          -8.63683796
 EL+E0+ET+PV-TS:   -1316.670217476076  -35828.418099102892    -3456917.16881546

 OTHER THERMODINAMIC FUNCTIONS:

                      mHARTREE/(CELL*K)     mEV/(CELL*K)              J/(MOL*K)
 ENTROPY       :       0.028831615474       0.784548142701          75.69739576
 HEAT CAPACITY :       0.038890557560       1.058265872415         102.10714449

 *******************************************************************************
 TTTTTTTTTTTTTTTTTTTTTTTTTTTTTT END         TELAPSE    12519.18 TCPU    12520.12
 EEEEEEEEEE TERMINATION  DATE 31 08 2006 TIME 14:20:13.5
NODE    0 CPU TIME =     12520.116
NODE    1 CPU TIME =     12517.120
NODE    2 CPU TIME =     12520.114
NODE    3 CPU TIME =     12520.772
NODE    4 CPU TIME =     12520.639
NODE    5 CPU TIME =     12520.716
NODE    6 CPU TIME =     12517.618
NODE    7 CPU TIME =     12509.238
    TOTAL CPU TIME =    100146.333
Thu Aug 31 14:20:14 CEST 2006
total 225000
-rw-r--r--  1 test users     1128 2006-08-31 14:07 ERROR
-rw-r--r--  1 test users     1128 2006-08-31 14:07 ERROR.pe1
-rw-r--r--  1 test users     1128 2006-08-31 14:07 ERROR.pe2
-rw-r--r--  1 test users     1128 2006-08-31 14:07 ERROR.pe3
-rw-r--r--  1 test users     1128 2006-08-31 14:07 ERROR.pe4
-rw-r--r--  1 test users     1128 2006-08-31 14:07 ERROR.pe5
-rw-r--r--  1 test users     1128 2006-08-31 14:07 ERROR.pe6
-rw-r--r--  1 test users     1128 2006-08-31 14:07 ERROR.pe7
-rw-r--r--  1 test users   535832 2006-08-31 14:05 fort.10.pe0
-rw-r--r--  1 test users   535832 2006-08-31 14:05 fort.10.pe1
-rw-r--r--  1 test users  1071664 2006-08-31 14:05 fort.10.pe2
-rw-r--r--  1 test users  1071664 2006-08-31 14:05 fort.10.pe3
-rw-r--r--  1 test users  1071664 2006-08-31 14:05 fort.10.pe4
-rw-r--r--  1 test users  1071664 2006-08-31 14:05 fort.10.pe5
-rw-r--r--  1 test users  1071664 2006-08-31 14:05 fort.10.pe6
-rw-r--r--  1 test users   803752 2006-08-31 14:05 fort.10.pe7
-rw-r--r--  1 test users  1231280 2006-08-31 14:05 fort.11.pe0
-rw-r--r--  1 test users  1231280 2006-08-31 14:05 fort.11.pe1
-rw-r--r--  1 test users  1231280 2006-08-31 14:05 fort.11.pe2
-rw-r--r--  1 test users  1231280 2006-08-31 14:05 fort.11.pe3
-rw-r--r--  1 test users  1231280 2006-08-31 14:05 fort.11.pe4
-rw-r--r--  1 test users  1231280 2006-08-31 14:05 fort.11.pe5
-rw-r--r--  1 test users  1231280 2006-08-31 14:05 fort.11.pe6
-rw-r--r--  1 test users  1231280 2006-08-31 14:05 fort.11.pe7
-rw-r--r--  1 test users    19664 2006-08-31 13:45 fort.12
-rw-r--r--  1 test users  2402288 2006-08-31 11:33 fort.13
-rw-r--r--  1 test users     2772 2006-08-31 14:20 fort.19.pe0
-rw-r--r--  1 test users    77988 2006-08-31 14:20 fort.19.pe1
-rw-r--r--  1 test users    77988 2006-08-31 14:20 fort.19.pe2
-rw-r--r--  1 test users    77988 2006-08-31 14:20 fort.19.pe3
-rw-r--r--  1 test users    77988 2006-08-31 14:20 fort.19.pe4
-rw-r--r--  1 test users    77988 2006-08-31 14:20 fort.19.pe5
-rw-r--r--  1 test users    77988 2006-08-31 14:20 fort.19.pe6
-rw-r--r--  1 test users    77988 2006-08-31 14:20 fort.19.pe7
-rw-r--r--  1 test users        0 2006-08-31 10:51 fort.1.pe0
-rw-r--r--  1 test users        0 2006-08-31 10:51 fort.1.pe1
-rw-r--r--  1 test users        0 2006-08-31 10:51 fort.1.pe2
-rw-r--r--  1 test users        0 2006-08-31 10:51 fort.1.pe3
-rw-r--r--  1 test users        0 2006-08-31 10:51 fort.1.pe4
-rw-r--r--  1 test users        0 2006-08-31 10:51 fort.1.pe5
-rw-r--r--  1 test users        0 2006-08-31 10:51 fort.1.pe6
-rw-r--r--  1 test users        0 2006-08-31 10:51 fort.1.pe7
-rw-r--r--  1 test users   592288 2006-08-31 11:33 fort.20
lrwxrwxrwx  1 test users       39 2006-08-31 10:51 fort.33 -> /home/test/crytest/aqua/qua_hf_2d_f.xyz
-rw-r--r--  1 test users 22804984 2006-08-31 14:07 fort.38.pe0
-rw-r--r--  1 test users 22804984 2006-08-31 14:07 fort.38.pe1
-rw-r--r--  1 test users 22804984 2006-08-31 14:07 fort.38.pe2
-rw-r--r--  1 test users 22804984 2006-08-31 14:07 fort.38.pe3
-rw-r--r--  1 test users 22804984 2006-08-31 14:07 fort.38.pe4
-rw-r--r--  1 test users 22804984 2006-08-31 14:07 fort.38.pe5
-rw-r--r--  1 test users 22804984 2006-08-31 14:07 fort.38.pe6
-rw-r--r--  1 test users 22804984 2006-08-31 14:07 fort.38.pe7
-rw-r--r--  1 test users        0 2006-08-31 10:51 fort.3.pe0
-rw-r--r--  1 test users        0 2006-08-31 10:51 fort.3.pe1
-rw-r--r--  1 test users        0 2006-08-31 10:51 fort.3.pe2
-rw-r--r--  1 test users        0 2006-08-31 10:51 fort.3.pe3
-rw-r--r--  1 test users        0 2006-08-31 10:51 fort.3.pe4
-rw-r--r--  1 test users        0 2006-08-31 10:51 fort.3.pe5
-rw-r--r--  1 test users        0 2006-08-31 10:51 fort.3.pe6
-rw-r--r--  1 test users        0 2006-08-31 10:51 fort.3.pe7
-rw-r--r--  1 test users        0 2006-08-31 10:51 fort.40.pe0
-rw-r--r--  1 test users        0 2006-08-31 10:51 fort.40.pe1
-rw-r--r--  1 test users        0 2006-08-31 10:51 fort.40.pe2
-rw-r--r--  1 test users        0 2006-08-31 10:51 fort.40.pe3
-rw-r--r--  1 test users        0 2006-08-31 10:51 fort.40.pe4
-rw-r--r--  1 test users        0 2006-08-31 10:51 fort.40.pe5
-rw-r--r--  1 test users        0 2006-08-31 10:51 fort.40.pe6
-rw-r--r--  1 test users        0 2006-08-31 10:51 fort.40.pe7
-rw-r--r--  1 test users     1000 2006-08-31 14:20 fort.8.pe0
-rw-r--r--  1 test users   535832 2006-08-31 14:04 fort.8.pe1
-rw-r--r--  1 test users  1071664 2006-08-31 14:04 fort.8.pe2
-rw-r--r--  1 test users  1071664 2006-08-31 14:04 fort.8.pe3
-rw-r--r--  1 test users  1071664 2006-08-31 14:04 fort.8.pe4
-rw-r--r--  1 test users  1071664 2006-08-31 14:04 fort.8.pe5
-rw-r--r--  1 test users  1071664 2006-08-31 14:04 fort.8.pe6
-rw-r--r--  1 test users   803752 2006-08-31 14:04 fort.8.pe7
-rw-r--r--  1 test users   592288 2006-08-31 11:33 fort.9
-rw-r--r--  1 test users  1242696 2006-08-31 14:04 fort.95.pe0
-rw-r--r--  1 test users  1242696 2006-08-31 14:04 fort.95.pe1
-rw-r--r--  1 test users  1242696 2006-08-31 14:04 fort.95.pe2
-rw-r--r--  1 test users  1242696 2006-08-31 14:04 fort.95.pe3
-rw-r--r--  1 test users  1242696 2006-08-31 14:04 fort.95.pe4
-rw-r--r--  1 test users  1242696 2006-08-31 14:04 fort.95.pe5
-rw-r--r--  1 test users  1242696 2006-08-31 14:04 fort.95.pe6
-rw-r--r--  1 test users  1242696 2006-08-31 14:04 fort.95.pe7
-rw-r--r--  1 test users  1231280 2006-08-31 13:45 fort.96.pe0
-rw-r--r--  1 test users  1231280 2006-08-31 13:45 fort.96.pe1
-rw-r--r--  1 test users  1231280 2006-08-31 13:45 fort.96.pe2
-rw-r--r--  1 test users  1231280 2006-08-31 13:45 fort.96.pe3
-rw-r--r--  1 test users  1231280 2006-08-31 13:45 fort.96.pe4
-rw-r--r--  1 test users  1231280 2006-08-31 13:45 fort.96.pe5
-rw-r--r--  1 test users  1231280 2006-08-31 13:45 fort.96.pe6
-rw-r--r--  1 test users  1231280 2006-08-31 13:45 fort.96.pe7
-rw-r--r--  1 test users     5840 2006-08-31 10:51 fort.97
-rw-r--r--  1 test users    48388 2006-08-31 14:20 FREQINFO.DAT
-rw-r--r--  1 test users      942 2006-08-31 10:51 INPUT
lrwxrwxrwx  1 test users       40 2006-08-31 10:51 OPTAT.LOG -> /home/test/crytest/aqua/qua_hf_2d_f.out3
-rw-r--r--  1 test users    15492 2006-08-31 14:20 OPTHESS.DAT
lrwxrwxrwx  1 test users       40 2006-08-31 10:51 SCFOUT.LOG -> /home/test/crytest/aqua/qua_hf_2d_f.out2
