
         
 *******************************************************************************
 *                                                                             *
 *                               CRYSTAL14                                     *
 *                      public : 1.0.1 - Dec 11th, 2013                        *
 *                       HTTP://WWW.CRYSTAL.UNITO.IT                           *
 *                                                                             *
 *                              MAIN AUTHORS                                   *
 *                                                                             *
 *  R. DOVESI(1,11), V.R. SAUNDERS(2), C. ROETTI(1,11), R. ORLANDO(1,11),      *
 *  C.M. ZICOVICH-WILSON(1,3), F. PASCALE(4), B. CIVALLERI(1,11),              *
 *  K. DOLL(5), N.M. HARRISON(2,6), I. J. BUSH(7), Ph. D'ARCO(8),              *
 *  M. LLUNELL(9), M. CAUSA'(10), Y. NOEL(8)                                   *
 *                                                                             *
 *        CONTRIBUTIONS TO THE CURRENT RELEASE HAVE BEEN GIVEN BY              *
 *                                                                             *
 *  L. MASCHIO(1,11), S. CASASSA(1,11), A. ERBA(1,11), M. FERRABONE(1,11),     *
 *  M. DE LA PIERRE(1,11), M. FERRERO(1,11), V. LACIVITA(1,11),                *
 *  J. BAIMA(1,11), E. ALBANESE(1,11), M.F. PEINTINGER(12), R. BAST(13),       *
 *  M. RERAT(14), B. KIRTMAN(15), R. DEMICHELIS(1,16)                          *
 *                                                                             *
 * (1) THEORETICAL CHEMISTRY GROUP - UNIVERSITA' DI TORINO - TORINO (ITALY)    *
 *     http://www.crystal.unito.it                                             *
 * (2) COMPUTATIONAL SCIENCE & ENGINEERING DEPARTMENT - STFC DARESBURY (UK)    *
 *     http://www.stfc.ac.uk/CSE/randd/cmg/CRYSTAL/25806.aspx                  *
 * (3) UNIVERSIDAD AUTONOMA DEL ESTADO DE MORELOS - CUERNAVACA (MEXICO)        *
 * (4) UNIVERSITE' DE LORRAINE - NANCY (FRANCE)                                *
 * (5) UNIVERSITAET ULM - ULM (GERMANY); (6) IMPERIAL COLLEGE - LONDON (UK)    *
 * (7) NAG - OXFORD (UK); (8) UPMC - SORBONNE UNIVERSITES - PARIS (FRANCE)     *
 * (9) UNIVERSIDAD DE BARCELONA - BARCELONA (SPAIN)                            *
 *(10) UNIVERSITA' DI NAPOLI "FEDERICO II" - NAPOLI (ITALY)                    *
 *(11) NIS - NANOSTRUCTURED INTERFACES AND SURFACES - TORINO (ITALY)           *
 *(12) MPI FUER CHEMISCHE ENERGIEKONVERSION - MUELHEIM AN DER RUHR (GERMANY)   *
 *(13) UNIVERSITY OF STOCKHOLM - STOCKHOLM (SWEDEN)                            *
 *(14) UNIVERSITE' DE PAU ET DES PAYS DE L'ADOUR - PAU (FRANCE)                *
 *(15) UNIVERSITY OF CALIFORNIA SANTA BARBARA - SANTA BARBARA (USA)            *
 *(16) CURTIN UNIVERSITY - PERTH (AUSTRALIA)                                   *
 *                                                                             *
 ********************************************************************************
 EEEEEEEEEE STARTING  DATE 28 03 2019 TIME 00:13:37.2
 TEST11 - MGO BULK                                                               

 CRYSTAL CALCULATION
 (INPUT ACCORDING TO THE INTERNATIONAL TABLES FOR X-RAY CRYSTALLOGRAPHY)
 CRYSTAL FAMILY                       :  CUBIC       
 CRYSTAL CLASS  (GROTH - 1921)        :  CUBIC HEXAKISOCTAHEDRAL              

 SPACE GROUP (CENTROSYMMETRIC)        :  F M 3 M         

 LATTICE PARAMETERS  (ANGSTROMS AND DEGREES) - CONVENTIONAL CELL
        A           B           C        ALPHA        BETA       GAMMA
     4.21000     4.21000     4.21000    90.00000    90.00000    90.00000


 NUMBER OF IRREDUCIBLE ATOMS IN THE CONVENTIONAL CELL:    2

 INPUT COORDINATES

 ATOM AT. N.              COORDINATES
   1  12     0.000000000000E+00  0.000000000000E+00  0.000000000000E+00
   2   8     5.000000000000E-01  5.000000000000E-01  5.000000000000E-01

 *******************************************************************************

 << INFORMATION >>: FROM NOW ON, ALL COORDINATES REFER TO THE PRIMITIVE CELL

 *******************************************************************************

 LATTICE PARAMETERS  (ANGSTROMS AND DEGREES) - PRIMITIVE CELL
       A          B          C         ALPHA     BETA     GAMMA        VOLUME
    2.97692    2.97692    2.97692    60.00000  60.00000  60.00000     18.654615

 COORDINATES OF THE EQUIVALENT ATOMS (FRACTIONAL UNITS)

 N. ATOM EQUIV AT. N.          X                  Y                  Z

   1   1   1   12 MG    0.00000000000E+00  0.00000000000E+00  0.00000000000E+00

   2   2   1    8 O    -5.00000000000E-01 -5.00000000000E-01 -5.00000000000E-01

 NUMBER OF SYMMETRY OPERATORS         :   48
 *******************************************************************************
 * GEOMETRY EDITING - INPUT COORDINATES ARE GIVEN IN ANGSTROM         
 *******************************************************************************

 GEOMETRY NOW FULLY CONSISTENT WITH THE GROUP

 FRQFRQFRQFRQFRQFRQFRQFRQFRQFRQFRQFRQFRQFRQFRQFRQFRQFRQFRQFRQFRQFRQFRQFRQFRQFRQ

                       FREQUENCY CALCULATION

 INFORMATION **** INPFREQ **** IR INTENSITIES EVALUATED THROUGH CPHF APPROACH
 INFORMATION **** INPFREQ **** NEW DEFAULT - IMPOSING ECKART CONDITIONS TO THE HESSIAN

 GCALCO - MAX INDICES DIRECT LATTICE VECTOR    14    14    14
 NO.OF VECTORS CREATED 6999 STARS  105 RMAX    59.53536 BOHR

 GEOMETRY FOR WAVE FUNCTION - DIMENSIONALITY OF THE SYSTEM    3
 (NON PERIODIC DIRECTION: LATTICE PARAMETER FORMALLY SET TO 500)
 *******************************************************************************
 LATTICE PARAMETERS (ANGSTROMS AND DEGREES) - BOHR = 0.5291772083 ANGSTROM
 PRIMITIVE CELL - CENTRING CODE 5/0 VOLUME=    18.654615 - DENSITY  3.559 g/cm^3
         A              B              C           ALPHA      BETA       GAMMA 
     2.97691955     2.97691955     2.97691955    60.000000  60.000000  60.000000
 *******************************************************************************
 ATOMS IN THE ASYMMETRIC UNIT    2 - ATOMS IN THE UNIT CELL:    2
     ATOM              X/A                 Y/B                 Z/C    
 *******************************************************************************
   1 T  12 MG    0.000000000000E+00  0.000000000000E+00  0.000000000000E+00
   2 T   8 O    -5.000000000000E-01 -5.000000000000E-01 -5.000000000000E-01

 TRANSFORMATION MATRIX PRIMITIVE-CRYSTALLOGRAPHIC CELL
 -1.0000  1.0000  1.0000  1.0000 -1.0000  1.0000  1.0000  1.0000 -1.0000

 *******************************************************************************
 CRYSTALLOGRAPHIC CELL (VOLUME=         74.61846100)
         A              B              C           ALPHA      BETA       GAMMA 
     4.21000000     4.21000000     4.21000000    90.000000  90.000000  90.000000

 COORDINATES IN THE CRYSTALLOGRAPHIC CELL
     ATOM              X/A                 Y/B                 Z/C    
 *******************************************************************************
   1 T  12 MG    0.000000000000E+00  0.000000000000E+00  0.000000000000E+00
   2 T   8 O    -5.000000000000E-01 -5.000000000000E-01 -5.000000000000E-01

 T = ATOM BELONGING TO THE ASYMMETRIC UNIT

 ****   48 SYMMOPS - TRANSLATORS IN FRACTIONAL UNITS
 **** MATRICES AND TRANSLATORS IN THE CRYSTALLOGRAPHIC REFERENCE FRAME
   V INV                    ROTATION MATRICES                   TRANSLATORS
   1   1  1.00  0.00  0.00  0.00  1.00  0.00  0.00  0.00  1.00  0.00  0.00  0.00
   2   2  0.00  1.00  0.00  1.00  0.00  0.00 -1.00 -1.00 -1.00  0.00  0.00  0.00
   3   3 -1.00 -1.00 -1.00  0.00  0.00  1.00  0.00  1.00  0.00  0.00  0.00  0.00
   4   4  0.00  0.00  1.00 -1.00 -1.00 -1.00  1.00  0.00  0.00  0.00  0.00  0.00
   5   6  0.00  0.00  1.00  1.00  0.00  0.00  0.00  1.00  0.00  0.00  0.00  0.00
   6   5  0.00  1.00  0.00  0.00  0.00  1.00  1.00  0.00  0.00  0.00  0.00  0.00
   7   8  1.00  0.00  0.00  0.00  0.00  1.00 -1.00 -1.00 -1.00  0.00  0.00  0.00
   8   7  1.00  0.00  0.00 -1.00 -1.00 -1.00  0.00  1.00  0.00  0.00  0.00  0.00
   9  10 -1.00 -1.00 -1.00  0.00  1.00  0.00  1.00  0.00  0.00  0.00  0.00  0.00
  10   9  0.00  0.00  1.00  0.00  1.00  0.00 -1.00 -1.00 -1.00  0.00  0.00  0.00
  11  12  0.00  1.00  0.00 -1.00 -1.00 -1.00  0.00  0.00  1.00  0.00  0.00  0.00
  12  11 -1.00 -1.00 -1.00  1.00  0.00  0.00  0.00  0.00  1.00  0.00  0.00  0.00
  13  13  0.00 -1.00  0.00 -1.00  0.00  0.00  0.00  0.00 -1.00  0.00  0.00  0.00
  14  14 -1.00  0.00  0.00  0.00 -1.00  0.00  1.00  1.00  1.00  0.00  0.00  0.00
  15  16  0.00  0.00 -1.00  1.00  1.00  1.00  0.00 -1.00  0.00  0.00  0.00  0.00
  16  15  1.00  1.00  1.00  0.00  0.00 -1.00 -1.00  0.00  0.00  0.00  0.00  0.00
  17  17 -1.00  0.00  0.00  0.00  0.00 -1.00  0.00 -1.00  0.00  0.00  0.00  0.00
  18  18  0.00  0.00 -1.00  0.00 -1.00  0.00 -1.00  0.00  0.00  0.00  0.00  0.00
  19  21  0.00  0.00 -1.00 -1.00  0.00  0.00  1.00  1.00  1.00  0.00  0.00  0.00
  20  22  1.00  1.00  1.00 -1.00  0.00  0.00  0.00 -1.00  0.00  0.00  0.00  0.00
  21  19  0.00 -1.00  0.00  1.00  1.00  1.00 -1.00  0.00  0.00  0.00  0.00  0.00
  22  20  0.00 -1.00  0.00  0.00  0.00 -1.00  1.00  1.00  1.00  0.00  0.00  0.00
  23  23  1.00  1.00  1.00  0.00 -1.00  0.00  0.00  0.00 -1.00  0.00  0.00  0.00
  24  24 -1.00  0.00  0.00  1.00  1.00  1.00  0.00  0.00 -1.00  0.00  0.00  0.00
  25  25 -1.00  0.00  0.00  0.00 -1.00  0.00  0.00  0.00 -1.00  0.00  0.00  0.00
  26  26  0.00 -1.00  0.00 -1.00  0.00  0.00  1.00  1.00  1.00  0.00  0.00  0.00
  27  27  1.00  1.00  1.00  0.00  0.00 -1.00  0.00 -1.00  0.00  0.00  0.00  0.00
  28  28  0.00  0.00 -1.00  1.00  1.00  1.00 -1.00  0.00  0.00  0.00  0.00  0.00
  29  30  0.00  0.00 -1.00 -1.00  0.00  0.00  0.00 -1.00  0.00  0.00  0.00  0.00
  30  29  0.00 -1.00  0.00  0.00  0.00 -1.00 -1.00  0.00  0.00  0.00  0.00  0.00
  31  32 -1.00  0.00  0.00  0.00  0.00 -1.00  1.00  1.00  1.00  0.00  0.00  0.00
  32  31 -1.00  0.00  0.00  1.00  1.00  1.00  0.00 -1.00  0.00  0.00  0.00  0.00
  33  34  1.00  1.00  1.00  0.00 -1.00  0.00 -1.00  0.00  0.00  0.00  0.00  0.00
  34  33  0.00  0.00 -1.00  0.00 -1.00  0.00  1.00  1.00  1.00  0.00  0.00  0.00
  35  36  0.00 -1.00  0.00  1.00  1.00  1.00  0.00  0.00 -1.00  0.00  0.00  0.00
  36  35  1.00  1.00  1.00 -1.00  0.00  0.00  0.00  0.00 -1.00  0.00  0.00  0.00
  37  37  0.00  1.00  0.00  1.00  0.00  0.00  0.00  0.00  1.00  0.00  0.00  0.00
  38  38  1.00  0.00  0.00  0.00  1.00  0.00 -1.00 -1.00 -1.00  0.00  0.00  0.00
  39  40  0.00  0.00  1.00 -1.00 -1.00 -1.00  0.00  1.00  0.00  0.00  0.00  0.00
  40  39 -1.00 -1.00 -1.00  0.00  0.00  1.00  1.00  0.00  0.00  0.00  0.00  0.00
  41  41  1.00  0.00  0.00  0.00  0.00  1.00  0.00  1.00  0.00  0.00  0.00  0.00
  42  42  0.00  0.00  1.00  0.00  1.00  0.00  1.00  0.00  0.00  0.00  0.00  0.00
  43  45  0.00  0.00  1.00  1.00  0.00  0.00 -1.00 -1.00 -1.00  0.00  0.00  0.00
  44  46 -1.00 -1.00 -1.00  1.00  0.00  0.00  0.00  1.00  0.00  0.00  0.00  0.00
  45  43  0.00  1.00  0.00 -1.00 -1.00 -1.00  1.00  0.00  0.00  0.00  0.00  0.00
  46  44  0.00  1.00  0.00  0.00  0.00  1.00 -1.00 -1.00 -1.00  0.00  0.00  0.00
  47  47 -1.00 -1.00 -1.00  0.00  1.00  0.00  0.00  0.00  1.00  0.00  0.00  0.00
  48  48  1.00  0.00  0.00 -1.00 -1.00 -1.00  0.00  0.00  1.00  0.00  0.00  0.00

 DIRECT LATTICE VECTORS CARTESIAN COMPONENTS (ANGSTROM)
          X                    Y                    Z
   0.000000000000E+00   0.210500000000E+01   0.210500000000E+01
   0.210500000000E+01   0.000000000000E+00   0.210500000000E+01
   0.210500000000E+01   0.210500000000E+01   0.000000000000E+00


 CARTESIAN COORDINATES - PRIMITIVE CELL
 *******************************************************************************
 *      ATOM          X(ANGSTROM)         Y(ANGSTROM)         Z(ANGSTROM)
 *******************************************************************************
    1    12 MG    0.000000000000E+00  0.000000000000E+00  0.000000000000E+00
    2     8 O     2.105000000000E+00  2.105000000000E+00  2.105000000000E+00

 *******************************************************************************
 LOCAL ATOMIC FUNCTIONS BASIS SET
 *******************************************************************************
   ATOM   X(AU)   Y(AU)   Z(AU)  N. TYPE  EXPONENT  S COEF   P COEF   D/F/G COEF
 *******************************************************************************
   1 MG   0.000   0.000   0.000
                                  1 S  
                                         6.837E+04 2.226E-04 0.000E+00 0.000E+00
                                         9.699E+03 1.898E-03 0.000E+00 0.000E+00
                                         2.041E+03 1.105E-02 0.000E+00 0.000E+00
                                         5.299E+02 5.006E-02 0.000E+00 0.000E+00
                                         1.592E+02 1.691E-01 0.000E+00 0.000E+00
                                         5.468E+01 3.670E-01 0.000E+00 0.000E+00
                                         2.124E+01 4.004E-01 0.000E+00 0.000E+00
                                         8.746E+00 1.499E-01 0.000E+00 0.000E+00
                             2-   5 SP 
                                         1.568E+02-6.240E-03 7.720E-03 0.000E+00
                                         3.103E+01-7.882E-02 6.427E-02 0.000E+00
                                         9.645E+00-7.992E-02 2.104E-01 0.000E+00
                                         3.711E+00 2.906E-01 3.431E-01 0.000E+00
                                         1.612E+00 5.716E-01 3.735E-01 0.000E+00
                                         6.429E-01 3.066E-01 2.329E-01 0.000E+00
                             6-   9 SP 
                                         4.000E-01 1.000E+00 1.000E+00 0.000E+00
   2 O    3.978   3.978   3.978
                                 10 S  
                                         4.000E+03 1.440E-03 0.000E+00 0.000E+00
                                         1.356E+03 7.640E-03 0.000E+00 0.000E+00
                                         2.485E+02 5.370E-02 0.000E+00 0.000E+00
                                         6.953E+01 1.682E-01 0.000E+00 0.000E+00
                                         2.389E+01 3.604E-01 0.000E+00 0.000E+00
                                         9.276E+00 3.861E-01 0.000E+00 0.000E+00
                                         3.820E+00 1.471E-01 0.000E+00 0.000E+00
                                         1.235E+00 7.105E-02 0.000E+00 0.000E+00
                            11-  14 SP 
                                         5.219E+01-8.730E-03 9.220E-03 0.000E+00
                                         1.033E+01-8.979E-02 7.068E-02 0.000E+00
                                         3.210E+00-4.079E-02 2.043E-01 0.000E+00
                                         1.235E+00 3.767E-01 3.496E-01 0.000E+00
                                         5.364E-01 4.225E-01 2.777E-01 0.000E+00
                            15-  18 SP 
                                         2.100E-01 1.000E+00 1.000E+00 0.000E+00
 INFORMATION **** SET_MPP **** PCRYSTAL CALCULATION
 INFORMATION **** READM2 **** NEW DEFAULT: FOCK/KS MATRIX MIXING SET TO 30 %
 INFORMATION **** READM2 **** NEW DEFAULT: FULL DIRECT SCF MODE
 INFORMATION **** READM2 **** NEW DEFAULT: COULOMB BIPOLAR BUFFER SET TO 32 Mb
 INFORMATION **** READM2 **** NEW DEFAULT: EXCHANGE BIPOLAR BUFFER SET TO 32 Mb
 INFORMATION **** TOLDEE **** SCF TOL ON TOTAL ENERGY SET TO           7
 INFORMATION **** READM2 **** MONO- AND BI-ELECTRON INTEGRALS WRITTEN ON DISK (NO DIRECT SCF)
 WARNING **** READM2 **** PROBABLE LOSS IN FREQCALC ACCURACY; SCF TOL LT          10
 *******************************************************************************
 N. OF ATOMS PER CELL         2  COULOMB OVERLAP TOL         (T1) 10**   -6
 NUMBER OF SHELLS             6  COULOMB PENETRATION TOL     (T2) 10**   -6
 NUMBER OF AO                18  EXCHANGE OVERLAP TOL        (T3) 10**   -6
 N. OF ELECTRONS PER CELL    20  EXCHANGE PSEUDO OVP (F(G))  (T4) 10**   -6
 CORE ELECTRONS PER CELL     12  EXCHANGE PSEUDO OVP (P(G))  (T5) 10**  -12
 N. OF SYMMETRY OPERATORS    48  POLE ORDER IN MONO ZONE                  4
 *******************************************************************************
 TYPE OF CALCULATION :  RESTRICTED CLOSED SHELL
 HARTREE-FOCK HAMILTONIAN

 CAPPA:IS1  8;IS2  8;IS3  8; K PTS MONK NET  29; SYMMOPS:K SPACE  48;G SPACE  48

 *******************************************************************************
 MAX NUMBER OF SCF CYCLES      50  CONVERGENCE ON DELTAP        10**-17
 WEIGHT OF F(I) IN F(I+1)      30% CONVERGENCE ON ENERGY        10**- 7
 SHRINK. FACT.(MONKH.)    8  8  8  NUMBER OF K POINTS IN THE IBZ     29
 SHRINKING FACTOR(GILAT NET)    8  NUMBER OF K POINTS(GILAT NET)     29
 *******************************************************************************
 *** K POINTS COORDINATES (OBLIQUE COORDINATES IN UNITS OF IS =  8)
   1-R(  0  0  0)   2-C(  1  0  0)   3-C(  2  0  0)   4-C(  3  0  0)
   5-R(  4  0  0)   6-C(  1  1  0)   7-C(  2  1  0)   8-C(  3  1  0)
   9-C(  4  1  0)  10-C(  5  1  0)  11-C(  6  1  0)  12-C(  7  1  0)
  13-C(  2  2  0)  14-C(  3  2  0)  15-C(  4  2  0)  16-C(  5  2  0)
  17-C(  6  2  0)  18-C(  3  3  0)  19-C(  4  3  0)  20-C(  5  3  0)
  21-R(  4  4  0)  22-C(  3  2  1)  23-C(  4  2  1)  24-C(  5  2  1)
  25-C(  4  3  1)  26-C(  5  3  1)  27-C(  6  3  1)  28-C(  5  4  1)
  29-C(  6  4  2)

 DIRECT LATTICE VECTORS COMPON. (A.U.)     RECIP. LATTICE VECTORS COMPON. (A.U.) 
        X            Y            Z              X            Y            Z
    0.0000000    3.9778735    3.9778735     -0.7897669    0.7897669    0.7897669
    3.9778735    0.0000000    3.9778735      0.7897669   -0.7897669    0.7897669
    3.9778735    3.9778735    0.0000000      0.7897669    0.7897669   -0.7897669

 DISK SPACE FOR EIGENVECTORS (FTN 10)       17820 REALS

 SYMMETRY ADAPTION OF THE BLOCH FUNCTIONS ENABLED

 MATRIX SIZE: P(G)   17290, F(G)    3362, P(G) IRR     864, F(G) IRR     470
 MAX G-VECTOR INDEX FOR 1- AND 2-ELECTRON INTEGRALS 247

 INFORMATION **** GENBUF **** COULOMB BIPO BUFFER LENGTH (WORDS) =       79850
 TTTTTTTTTTTTTTTTTTTTTTTTTTTTTT INPUT       TELAPSE        0.01 TCPU        0.01

 NEIGHBORS OF THE NON-EQUIVALENT ATOMS

 N = NUMBER OF NEIGHBORS AT DISTANCE R
    ATOM  N     R/ANG      R/AU   NEIGHBORS (ATOM LABELS AND CELL INDICES)
   1 MG   6     2.1050     3.9779    2 O   -1 0 0    2 O    0-1 0    2 O    0 0-1
                                     2 O   -1-1 0    2 O   -1 0-1    2 O    0-1-1
   1 MG  12     2.9769     5.6256    1 MG  -1 0 0    1 MG   1 0 0    1 MG  -1 0 1
                                     1 MG   1 0-1    1 MG  -1 1 0    1 MG   1-1 0
                                     1 MG   0-1 0    1 MG   0 1 0    1 MG   0-1 1
                                     1 MG   0 1-1    1 MG   0 0-1    1 MG   0 0 1
   1 MG   8     3.6460     6.8899    2 O    0 0 0    2 O   -1-1 1    2 O   -1 1-1
                                     2 O    1-1-1    2 O   -2 0 0    2 O    0-2 0
                                     2 O    0 0-2    2 O   -1-1-1
   1 MG   6     4.2100     7.9557    1 MG  -1-1 1    1 MG   1 1-1    1 MG  -1 1-1
                                     1 MG   1-1 1    1 MG  -1 1 1    1 MG   1-1-1
   1 MG  24     4.7069     8.8948    2 O    1 0-1    2 O   -1 0 1    2 O    1-1 0
                                     2 O   -1 1 0    2 O    0 1-1    2 O    0-1 1
                                     2 O   -2 0 1    2 O   -2 1 0    2 O    1 0-2
                                     2 O    1-2 0    2 O    0-2 1    2 O    0 1-2
                                     2 O   -2-1 1    2 O   -2 1-1    2 O   -1-2 1
                                     2 O   -1 1-2    2 O    1-1-2    2 O    1-2-1
                                     2 O   -2-1 0    2 O   -2 0-1    2 O   -1-2 0
                                     2 O   -1 0-2    2 O    0-2-1    2 O    0-1-2
   1 MG  24     5.1562     9.7438    1 MG  -2 0 1    1 MG   2 0-1    1 MG  -2 1 0
                                     1 MG   2-1 0    1 MG  -2 1 1    1 MG   2-1-1
                                     1 MG  -1-1 0    1 MG   1 1 0    1 MG  -1-1 2
                                     1 MG   1 1-2    1 MG  -1 0-1    1 MG   1 0 1
                                     1 MG  -1 0 2    1 MG   1 0-2    1 MG  -1 2-1
                                     1 MG   1-2 1    1 MG  -1 2 0    1 MG   1-2 0
                                     1 MG   0-2 1    1 MG   0 2-1    1 MG   0-1-1
                                     1 MG   0 1 1    1 MG   0-1 2    1 MG   0 1-2

   2 O    6     2.1050     3.9779    1 MG   1 0 0    1 MG   0 1 0    1 MG   0 0 1
                                     1 MG   1 1 0    1 MG   1 0 1    1 MG   0 1 1
   2 O   12     2.9769     5.6256    2 O   -1 0 0    2 O    1 0 0    2 O   -1 0 1
                                     2 O    1 0-1    2 O   -1 1 0    2 O    1-1 0
                                     2 O    0-1 0    2 O    0 1 0    2 O    0-1 1
                                     2 O    0 1-1    2 O    0 0-1    2 O    0 0 1
   2 O    8     3.6460     6.8899    1 MG   0 0 0    1 MG   1 1-1    1 MG   1-1 1
                                     1 MG  -1 1 1    1 MG   2 0 0    1 MG   0 2 0
                                     1 MG   0 0 2    1 MG   1 1 1
   2 O    6     4.2100     7.9557    2 O   -1-1 1    2 O    1 1-1    2 O   -1 1-1
                                     2 O    1-1 1    2 O   -1 1 1    2 O    1-1-1
   2 O   24     4.7069     8.8948    1 MG  -1 0 1    1 MG   1 0-1    1 MG  -1 1 0
                                     1 MG   1-1 0    1 MG   0-1 1    1 MG   0 1-1
                                     1 MG   2 0-1    1 MG   2-1 0    1 MG  -1 0 2
                                     1 MG  -1 2 0    1 MG   0 2-1    1 MG   0-1 2
                                     1 MG   2 1-1    1 MG   2-1 1    1 MG   1 2-1
                                     1 MG   1-1 2    1 MG  -1 1 2    1 MG  -1 2 1
                                     1 MG   2 1 0    1 MG   2 0 1    1 MG   1 2 0
                                     1 MG   1 0 2    1 MG   0 2 1    1 MG   0 1 2
   2 O   24     5.1562     9.7438    2 O   -2 0 1    2 O    2 0-1    2 O   -2 1 0
                                     2 O    2-1 0    2 O   -2 1 1    2 O    2-1-1
                                     2 O   -1-1 0    2 O    1 1 0    2 O   -1-1 2
                                     2 O    1 1-2    2 O   -1 0-1    2 O    1 0 1
                                     2 O   -1 0 2    2 O    1 0-2    2 O   -1 2-1
                                     2 O    1-2 1    2 O   -1 2 0    2 O    1-2 0
                                     2 O    0-2 1    2 O    0 2-1    2 O    0-1-1
                                     2 O    0 1 1    2 O    0-1 2    2 O    0 1-2


 THERE ARE NO SYMMETRY ALLOWED DIRECTIONS
 TTTTTTTTTTTTTTTTTTTTTTTTTTTTTT SYMM        TELAPSE        0.02 TCPU        0.02
 TTTTTTTTTTTTTTTTTTTTTTTTTTTTTT INT_SCREEN  TELAPSE        0.02 TCPU        0.02
 INFORMATION **** GENBUF **** COULOMB BIPO BUFFER LENGTH (WORDS) =       79850
 INFORMATION **** EXCBUF **** EXCH. BIPO BUFFER: WORDS USED =      102474
 TTTTTTTTTTTTTTTTTTTTTTTTTTTTTT MONIRR      TELAPSE        0.04 TCPU        0.04

  GAUSS70 FOR COULOMB   GAUSS70 FOR EXCHANGE
 **SHELL_ORTHODOX** SPACE FOR BIEL. INTEGRALS     1 BUFFERS
 TTTTTTTTTTTTTTTTTTTTTTTTTTTTTT SHLC        TELAPSE        0.45 TCPU        0.44
 TTTTTTTTTTTTTTTTTTTTTTTTTTTTTT MONMAD      TELAPSE        0.47 TCPU        0.46
 TTTTTTTTTTTTTTTTTTTTTTTTTTTTTT INT_CALC    TELAPSE        0.47 TCPU        0.46
 EEEEEEEEEE INT_CALC TERMINATION  DATE 28 03 2019 TIME 00:13:37.6

 *******************************************************************************
 TEST11 - MGO BULK                                                               
 CRYSTAL - SCF - TYPE OF CALCULATION :  RESTRICTED CLOSED SHELL
 *******************************************************************************

 CAPPA:IS1  8;IS2  8;IS3  8; K PTS MONK NET  29; SYMMOPS:K SPACE  48;G SPACE  48

 TTTTTTTTTTTTTTTTTTTTTTTTTTTTTT SDIK        TELAPSE        0.47 TCPU        0.46

 AAAAAAAAAAAAAAAAAAAAAAAAAAAAAAAAAAAAAAAAAAAAAAAAAAAAAAAAAAAAAAAAAAAAAAAAAAAAAAA
         ATOMIC WAVEFUNCTION(S)


 NUCLEAR CHARGE 12.0  SYMMETRY SPECIES            S    P
 N. ELECTRONS   10.0  NUMBER OF PRIMITIVE GTOS   15    7
                      NUMBER OF CONTRACTED GTOS   3    2
                      NUMBER OF CLOSED SHELLS     2    1
                      OPEN SHELL OCCUPATION       0    0

  ZNUC SCFIT  TOTAL HF ENERGY   KINETIC ENERGY   VIRIAL THEOREM ACCURACY
  12.0   6   -1.988200719E+02  1.987325169E+02 -2.000440567E+00  1.3E-06

 NUCLEAR CHARGE  8.0  SYMMETRY SPECIES            S    P
 N. ELECTRONS   10.0  NUMBER OF PRIMITIVE GTOS   14    6
                      NUMBER OF CONTRACTED GTOS   3    2
                      NUMBER OF CLOSED SHELLS     2    1
                      OPEN SHELL OCCUPATION       0    0

  ZNUC SCFIT  TOTAL HF ENERGY   KINETIC ENERGY   VIRIAL THEOREM ACCURACY
   8.0  37   -7.429054355E+01  7.468454787E+01 -1.994724420E+00  4.5E-06

 AAAAAAAAAAAAAAAAAAAAAAAAAAAAAAAAAAAAAAAAAAAAAAAAAAAAAAAAAAAAAAAAAAAAAAAAAAAAAAA

 TTTTTTTTTTTTTTTTTTTTTTTTTTTTTT QGAM        TELAPSE        0.47 TCPU        0.46
 TTTTTTTTTTTTTTTTTTTTTTTTTTTTTT BIEL2       TELAPSE        0.47 TCPU        0.46
 TTTTTTTTTTTTTTTTTTTTTTTTTTTTTT TOTENY      TELAPSE        0.47 TCPU        0.46
 CYC   0 ETOT(AU) -2.750919138897E+02 DETOT -2.75E+02 tst  0.00E+00 PX  1.00E+00
 TTTTTTTTTTTTTTTTTTTTTTTTTTTTTT FDIK        TELAPSE        0.47 TCPU        0.47
 INSULATING STATE
 TOP OF VALENCE BANDS -    BAND     10; K    1; EIG -3.4527266E-01 AU
 BOTTOM OF VIRTUAL BANDS - BAND     11; K    1; EIG  3.7948795E-01 AU
 TTTTTTTTTTTTTTTTTTTTTTTTTTTTTT PDIG        TELAPSE        0.48 TCPU        0.47
 TTTTTTTTTTTTTTTTTTTTTTTTTTTTTT QGAM        TELAPSE        0.48 TCPU        0.47
 TTTTTTTTTTTTTTTTTTTTTTTTTTTTTT BIEL2       TELAPSE        0.48 TCPU        0.47
 TTTTTTTTTTTTTTTTTTTTTTTTTTTTTT TOTENY      TELAPSE        0.48 TCPU        0.47
 CYC   1 ETOT(AU) -2.746574695516E+02 DETOT  4.34E-01 tst  0.00E+00 PX  1.00E+00
 TTTTTTTTTTTTTTTTTTTTTTTTTTTTTT FDIK        TELAPSE        0.48 TCPU        0.47
 INSULATING STATE
 TOP OF VALENCE BANDS -    BAND     10; K    1; EIG -2.9113133E-01 AU
 BOTTOM OF VIRTUAL BANDS - BAND     11; K    1; EIG  4.2525606E-01 AU
 TTTTTTTTTTTTTTTTTTTTTTTTTTTTTT PDIG        TELAPSE        0.48 TCPU        0.47
 TTTTTTTTTTTTTTTTTTTTTTTTTTTTTT QGAM        TELAPSE        0.48 TCPU        0.47
 TTTTTTTTTTTTTTTTTTTTTTTTTTTTTT BIEL2       TELAPSE        0.48 TCPU        0.47
 TTTTTTTTTTTTTTTTTTTTTTTTTTTTTT TOTENY      TELAPSE        0.48 TCPU        0.47
 CYC   2 ETOT(AU) -2.746640324460E+02 DETOT -6.56E-03 tst  8.06E-04 PX  6.00E-02
 TTTTTTTTTTTTTTTTTTTTTTTTTTTTTT FDIK        TELAPSE        0.48 TCPU        0.48
 INSULATING STATE
 TOP OF VALENCE BANDS -    BAND     10; K    1; EIG -3.0867602E-01 AU
 BOTTOM OF VIRTUAL BANDS - BAND     11; K    1; EIG  4.1808673E-01 AU
 TTTTTTTTTTTTTTTTTTTTTTTTTTTTTT PDIG        TELAPSE        0.48 TCPU        0.48
 TTTTTTTTTTTTTTTTTTTTTTTTTTTTTT QGAM        TELAPSE        0.49 TCPU        0.48
 TTTTTTTTTTTTTTTTTTTTTTTTTTTTTT BIEL2       TELAPSE        0.49 TCPU        0.48
 TTTTTTTTTTTTTTTTTTTTTTTTTTTTTT TOTENY      TELAPSE        0.49 TCPU        0.48
 CYC   3 ETOT(AU) -2.746641861817E+02 DETOT -1.54E-04 tst  1.98E-05 PX  8.52E-03
 TTTTTTTTTTTTTTTTTTTTTTTTTTTTTT FDIK        TELAPSE        0.49 TCPU        0.48
 INSULATING STATE
 TOP OF VALENCE BANDS -    BAND     10; K    1; EIG -3.0907413E-01 AU
 BOTTOM OF VIRTUAL BANDS - BAND     11; K    1; EIG  4.1955914E-01 AU
 TTTTTTTTTTTTTTTTTTTTTTTTTTTTTT PDIG        TELAPSE        0.49 TCPU        0.48
 TTTTTTTTTTTTTTTTTTTTTTTTTTTTTT QGAM        TELAPSE        0.49 TCPU        0.48
 TTTTTTTTTTTTTTTTTTTTTTTTTTTTTT BIEL2       TELAPSE        0.49 TCPU        0.48
 TTTTTTTTTTTTTTTTTTTTTTTTTTTTTT TOTENY      TELAPSE        0.49 TCPU        0.48
 CYC   4 ETOT(AU) -2.746641917324E+02 DETOT -5.55E-06 tst  7.07E-07 PX  2.67E-03
 TTTTTTTTTTTTTTTTTTTTTTTTTTTTTT FDIK        TELAPSE        0.49 TCPU        0.48
 INSULATING STATE
 TOP OF VALENCE BANDS -    BAND     10; K    1; EIG -3.0984547E-01 AU
 BOTTOM OF VIRTUAL BANDS - BAND     11; K    1; EIG  4.1975334E-01 AU
 TTTTTTTTTTTTTTTTTTTTTTTTTTTTTT PDIG        TELAPSE        0.49 TCPU        0.48
 TTTTTTTTTTTTTTTTTTTTTTTTTTTTTT QGAM        TELAPSE        0.49 TCPU        0.48
 TTTTTTTTTTTTTTTTTTTTTTTTTTTTTT BIEL2       TELAPSE        0.49 TCPU        0.49
 TTTTTTTTTTTTTTTTTTTTTTTTTTTTTT TOTENY      TELAPSE        0.49 TCPU        0.49
 CYC   5 ETOT(AU) -2.746641919730E+02 DETOT -2.41E-07 tst  7.58E-08 PX  6.47E-04
 TTTTTTTTTTTTTTTTTTTTTTTTTTTTTT FDIK        TELAPSE        0.50 TCPU        0.49
 INSULATING STATE
 TOP OF VALENCE BANDS -    BAND     10; K    1; EIG -3.0997922E-01 AU
 BOTTOM OF VIRTUAL BANDS - BAND     11; K    1; EIG  4.1995443E-01 AU
 TTTTTTTTTTTTTTTTTTTTTTTTTTTTTT PDIG        TELAPSE        0.50 TCPU        0.49
 TTTTTTTTTTTTTTTTTTTTTTTTTTTTTT QGAM        TELAPSE        0.50 TCPU        0.49
 TTTTTTTTTTTTTTTTTTTTTTTTTTTTTT BIEL2       TELAPSE        0.50 TCPU        0.49
 TTTTTTTTTTTTTTTTTTTTTTTTTTTTTT TOTENY      TELAPSE        0.50 TCPU        0.49
 CYC   6 ETOT(AU) -2.746641919257E+02 DETOT  4.72E-08 tst  1.47E-08 PX  4.11E-04
 TTTTTTTTTTTTTTTTTTTTTTTTTTTTTT FDIK        TELAPSE        0.50 TCPU        0.49
 INSULATING STATE
 TOP OF VALENCE BANDS -    BAND     10; K    1; EIG -3.1003203E-01 AU
 BOTTOM OF VIRTUAL BANDS - BAND     11; K    1; EIG  4.2004284E-01 AU
 TTTTTTTTTTTTTTTTTTTTTTTTTTTTTT PDIG        TELAPSE        0.50 TCPU        0.49
 TTTTTTTTTTTTTTTTTTTTTTTTTTTTTT QGAM        TELAPSE        0.50 TCPU        0.49
 TTTTTTTTTTTTTTTTTTTTTTTTTTTTTT BIEL2       TELAPSE        0.50 TCPU        0.49
 +++ ENERGIES IN A.U. +++
 ::: TOTAL   ENERGY                               -2.7466419188883E+02
 ::: VIRIAL COEFFICIENT                            9.9998490718752E-01
 TTTTTTTTTTTTTTTTTTTTTTTTTTTTTT TOTENY      TELAPSE        0.50 TCPU        0.49
 CYC   7 ETOT(AU) -2.746641918888E+02 DETOT  3.69E-08 tst  3.21E-09 PX  4.11E-04

 == SCF ENDED - CONVERGENCE ON ENERGY      E(AU) -2.7466419188883E+02 CYCLES   7

 TOTAL ENERGY(HF)(AU)(   7) -2.7466419188883E+02 DE 3.7E-08 tst 3.2E-09 PX 4.1E-04
 INSULATING STATE
 TOP OF VALENCE BANDS -    BAND     10; K    1; EIG -3.1005237E-01 AU
 BOTTOM OF VIRTUAL BANDS - BAND     11; K    1; EIG  4.2010682E-01 AU
 EIGENVECTORS IN FORTRAN UNIT 10
 EEEEEEEEEE SCF TERMINATION  DATE 28 03 2019 TIME 00:13:37.7

     *********************************************************************
     * ***************************************************************** *
     * *       COUPLED-PERTURBED HARTREE-FOCK CALCULATION (CPHF)       * *
     * *        REFERENCES TO BE QUOTED WHEN USING THIS MODULE:        * *
     * *        (1) M. Ferrero, M. Rerat, R. Orlando, R.Dovesi,        * *
     * *            J. Comput. Chem. 29 (2008), 1450;                  * *
     * *            J. Chem. Phys. 128 (2008), 014110.                 * *
     * *        (2) M. Ferrero, M. Rerat, B. Kirtman, R. Dovesi,       * *
     * *            J. Chem. Phys. 129 (2008), 244110.                 * *
     * ***************************************************************** *
     *********************************************************************

 INFORMATION **** CP_DRIVER **** CONVERGENCE ON ALPHA: 10**          -3
 INFORMATION **** CP_DRIVER **** MAX NUMBER OF CPHF/CPKS CYCLES         200
 INFORMATION **** CP_DRIVER **** CPHF/CPKS DAMPING PERCENTAGE:          60
 STATIC FIELD (OR H*NU < 1E-15 HA)

 *******************************************************************************

 ELECTRIC FIELD APPLIED ALONG CARTESIAN DIRECTION X

 *******************************************************************************
 THE NUMBER OF SYMMETRY OPERATORS HAS BEEN REDUCED FROM 48 TO  1

 NEW GRID IN RECIPROCAL SPACE
 *******************************************************************************
 POINTS IN THE IBZ                 260 SHRINKING FACTORS               8  8  8
 *******************************************************************************
 *** K POINTS COORDINATES (OBLIQUE COORDINATES IN UNITS OF SHRINK FAC. )
   1-R(  0  0  0)   2-C(  1  0  0)   3-C(  0  1  0)   4-C(  7  7  7)
   5-C(  0  0  1)   6-C(  2  0  0)   7-C(  0  2  0)   8-C(  6  6  6)
   9-C(  0  0  2)  10-C(  3  0  0)  11-C(  0  3  0)  12-C(  5  5  5)
  13-C(  0  0  3)  14-R(  4  0  0)  15-R(  0  4  0)  16-R(  4  4  4)
  17-R(  0  0  4)  18-C(  1  1  0)  19-C(  0  1  1)  20-C(  1  0  1)
  21-C(  2  1  0)  22-C(  1  2  0)  23-C(  6  6  7)  24-C(  7  7  1)
  25-C(  0  2  1)  26-C(  1  0  2)  27-C(  1  7  7)  28-C(  2  0  1)
  29-C(  0  1  2)  30-C(  6  7  6)  31-C(  7  6  6)  32-C(  7  1  7)
  33-C(  3  1  0)  34-C(  1  3  0)  35-C(  5  5  6)  36-C(  7  7  2)
  37-C(  0  3  1)  38-C(  1  0  3)  39-C(  2  7  7)  40-C(  3  0  1)
  41-C(  0  1  3)  42-C(  5  6  5)  43-C(  6  5  5)  44-C(  7  2  7)
  45-C(  4  1  0)  46-C(  1  4  0)  47-C(  4  4  5)  48-C(  7  7  3)
  49-C(  0  4  1)  50-C(  1  0  4)  51-C(  3  7  7)  52-C(  4  0  1)
  53-C(  0  1  4)  54-C(  4  5  4)  55-C(  5  4  4)  56-C(  7  3  7)
  57-C(  5  1  0)  58-C(  1  5  0)  59-C(  3  3  4)  60-C(  7  7  4)
  61-C(  0  5  1)  62-C(  1  0  5)  63-C(  4  7  7)  64-C(  5  0  1)
  65-C(  0  1  5)  66-C(  3  4  3)  67-C(  4  3  3)  68-C(  7  4  7)
  69-C(  6  1  0)  70-C(  1  6  0)  71-C(  2  2  3)  72-C(  7  7  5)
  73-C(  0  6  1)  74-C(  1  0  6)  75-C(  5  7  7)  76-C(  6  0  1)
  77-C(  0  1  6)  78-C(  2  3  2)  79-C(  3  2  2)  80-C(  7  5  7)
  81-C(  7  1  0)  82-C(  1  1  2)  83-C(  0  7  1)  84-C(  1  0  7)
  85-C(  6  7  7)  86-C(  1  2  1)  87-C(  2  2  0)  88-C(  0  2  2)
  89-C(  2  0  2)  90-C(  3  2  0)  91-C(  2  3  0)  92-C(  5  5  7)
  93-C(  6  6  1)  94-C(  0  3  2)  95-C(  2  0  3)  96-C(  1  6  6)
  97-C(  3  0  2)  98-C(  0  2  3)  99-C(  5  7  5) 100-C(  7  5  5)
 101-C(  6  1  6) 102-C(  4  2  0) 103-C(  2  4  0) 104-C(  4  4  6)
 105-C(  6  6  2) 106-C(  0  4  2) 107-C(  2  0  4) 108-C(  2  6  6)
 109-C(  4  0  2) 110-C(  0  2  4) 111-C(  4  6  4) 112-C(  6  4  4)
 113-C(  6  2  6) 114-C(  5  2  0) 115-C(  2  5  0) 116-C(  3  3  5)
 117-C(  6  6  3) 118-C(  0  5  2) 119-C(  2  0  5) 120-C(  3  6  6)
 121-C(  5  0  2) 122-C(  0  2  5) 123-C(  3  5  3) 124-C(  5  3  3)
 125-C(  6  3  6) 126-C(  6  2  0) 127-C(  2  2  4) 128-C(  0  6  2)
 129-C(  2  0  6) 130-C(  4  6  6) 131-C(  2  4  2) 132-C(  3  3  0)
 133-C(  0  3  3) 134-C(  3  0  3) 135-C(  4  3  0) 136-C(  3  4  0)
 137-C(  4  4  7) 138-C(  5  5  1) 139-C(  0  4  3) 140-C(  3  0  4)
 141-C(  1  5  5) 142-C(  4  0  3) 143-C(  0  3  4) 144-C(  4  7  4)
 145-C(  7  4  4) 146-C(  5  1  5) 147-C(  5  3  0) 148-C(  3  3  6)
 149-C(  0  5  3) 150-C(  3  0  5) 151-C(  2  5  5) 152-C(  3  6  3)
 153-R(  4  4  0) 154-R(  0  4  4) 155-R(  4  0  4) 156-C(  3  2  1)
 157-C(  1  2  7) 158-C(  1  3  2) 159-C(  2  1  3) 160-C(  1  7  6)
 161-C(  2  7  1) 162-C(  6  5  7) 163-C(  6  7  1) 164-C(  5  7  6)
 165-C(  7  6  5) 166-C(  1  7  2) 167-C(  1  6  7) 168-C(  4  2  1)
 169-C(  1  3  7) 170-C(  4  5  6) 171-C(  7  6  2) 172-C(  1  4  2)
 173-C(  2  1  4) 174-C(  2  7  6) 175-C(  3  7  1) 176-C(  7  1  3)
 177-C(  5  6  4) 178-C(  6  4  5) 179-C(  6  2  7) 180-C(  6  4  7)
 181-C(  5  7  1) 182-C(  3  4  2) 183-C(  2  1  6) 184-C(  4  7  6)
 185-C(  7  6  4) 186-C(  1  6  2) 187-C(  1  5  7) 188-C(  7  1  5)
 189-C(  2  3  4) 190-C(  4  2  3) 191-C(  6  2  1) 192-C(  5  2  1)
 193-C(  1  4  7) 194-C(  3  4  5) 195-C(  7  6  3) 196-C(  1  5  2)
 197-C(  2  1  5) 198-C(  3  7  6) 199-C(  4  7  1) 200-C(  7  1  4)
 201-C(  4  5  3) 202-C(  5  3  4) 203-C(  6  3  7) 204-C(  4  3  1)
 205-C(  2  3  7) 206-C(  1  4  3) 207-C(  3  1  4) 208-C(  1  6  5)
 209-C(  3  7  2) 210-C(  5  4  7) 211-C(  5  6  1) 212-C(  4  7  5)
 213-C(  7  5  4) 214-C(  2  7  3) 215-C(  1  5  6) 216-C(  5  3  1)
 217-C(  2  4  7) 218-C(  3  4  6) 219-C(  6  5  2) 220-C(  1  5  3)
 221-C(  3  1  5) 222-C(  2  6  5) 223-C(  4  7  2) 224-C(  7  2  4)
 225-C(  4  6  3) 226-C(  6  3  4) 227-C(  5  2  6) 228-C(  5  3  7)
 229-C(  4  6  1) 230-C(  4  5  2) 231-C(  3  2  6) 232-C(  3  7  5)
 233-C(  7  5  3) 234-C(  2  6  3) 235-C(  1  4  6) 236-C(  6  1  4)
 237-C(  2  4  5) 238-C(  5  2  4) 239-C(  6  3  2) 240-C(  6  3  1)
 241-C(  2  3  5) 242-C(  1  6  3) 243-C(  3  1  6) 244-C(  3  6  5)
 245-C(  3  5  2) 246-C(  5  2  7) 247-C(  5  6  3) 248-C(  2  7  5)
 249-C(  7  5  2) 250-C(  2  5  3) 251-C(  3  5  6) 252-C(  5  4  1)
 253-C(  1  5  4) 254-C(  4  1  5) 255-C(  4  3  7) 256-C(  3  7  4)
 257-C(  7  4  3) 258-C(  6  4  2) 259-C(  2  6  4) 260-C(  4  2  6)

 GCALCO - MAX INDICES DIRECT LATTICE VECTOR    14    14    14
 NO.OF VECTORS CREATED 6999 STARS  105 RMAX    59.53536 BOHR

 MATRIX SIZE: P(G)   17290, F(G)    3362, P(G) IRR   10716, F(G) IRR    3962
 MAX G-VECTOR INDEX FOR 1- AND 2-ELECTRON INTEGRALS 247

 INFORMATION **** GENBUF **** COULOMB BIPO BUFFER LENGTH (WORDS) =       79850
 TTTTTTTTTTTTTTTTTTTTTTTTTTTTTT INPUT       TELAPSE        0.89 TCPU        0.87
 TTTTTTTTTTTTTTTTTTTTTTTTTTTTTT SYMM        TELAPSE        0.89 TCPU        0.87

 ***** NEW REFERENCE GEOMETRY *****
 TTTTTTTTTTTTTTTTTTTTTTTTTTTTTT INT_SCREEN  TELAPSE        0.89 TCPU        0.87
 INFORMATION **** GENBUF **** COULOMB BIPO BUFFER LENGTH (WORDS) =       79850
 INFORMATION **** EXCBUF **** EXCH. BIPO BUFFER: WORDS USED =      102474
 TTTTTTTTTTTTTTTTTTTTTTTTTTTTTT MONIRR      TELAPSE        0.90 TCPU        0.88

  GAUSS70 FOR COULOMB   GAUSS70 FOR EXCHANGE
 **SHELL_ORTHODOX** SPACE FOR BIEL. INTEGRALS    31 BUFFERS
 TTTTTTTTTTTTTTTTTTTTTTTTTTTTTT SHLC        TELAPSE        3.63 TCPU        3.61
 TTTTTTTTTTTTTTTTTTTTTTTTTTTTTT MONMAD      TELAPSE        3.68 TCPU        3.66
 TTTTTTTTTTTTTTTTTTTTTTTTTTTTTT INT_CALC    TELAPSE        3.68 TCPU        3.66
 CYCLE   0   ALPHA    3.519926  EPSILON    1.351367  DELTA    3.5199E+00
 TTTTTTTTTTTTTTTTTTTTTTTTTTTTTT CP_TOTE     TELAPSE        3.84 TCPU        3.80
 CYCLE   1   ALPHA    3.941641  EPSILON    1.393463  DELTA    4.2172E-01
 TTTTTTTTTTTTTTTTTTTTTTTTTTTTTT CP_TOTE     TELAPSE        3.98 TCPU        3.94
 CYCLE   2   ALPHA    4.250912  EPSILON    1.424335  DELTA    3.0927E-01
 TTTTTTTTTTTTTTTTTTTTTTTTTTTTTT CP_TOTE     TELAPSE        4.12 TCPU        4.08
 CYCLE   3   ALPHA    4.478184  EPSILON    1.447022  DELTA    2.2727E-01
 TTTTTTTTTTTTTTTTTTTTTTTTTTTTTT CP_TOTE     TELAPSE        4.26 TCPU        4.22
 CYCLE   4   ALPHA    4.645519  EPSILON    1.463726  DELTA    1.6733E-01
 TTTTTTTTTTTTTTTTTTTTTTTTTTTTTT CP_TOTE     TELAPSE        4.40 TCPU        4.36
 CYCLE   5   ALPHA    4.768947  EPSILON    1.476047  DELTA    1.2343E-01
 TTTTTTTTTTTTTTTTTTTTTTTTTTTTTT CP_TOTE     TELAPSE        4.55 TCPU        4.51
 CYCLE   6   ALPHA    4.860143  EPSILON    1.485150  DELTA    9.1196E-02
 TTTTTTTTTTTTTTTTTTTTTTTTTTTTTT CP_TOTE     TELAPSE        4.69 TCPU        4.65
 CYCLE   7   ALPHA    4.927632  EPSILON    1.491887  DELTA    6.7489E-02
 TTTTTTTTTTTTTTTTTTTTTTTTTTTTTT CP_TOTE     TELAPSE        4.84 TCPU        4.80
 CYCLE   8   ALPHA    4.977650  EPSILON    1.496880  DELTA    5.0018E-02
 TTTTTTTTTTTTTTTTTTTTTTTTTTTTTT CP_TOTE     TELAPSE        4.99 TCPU        4.94
 CYCLE   9   ALPHA    5.014772  EPSILON    1.500585  DELTA    3.7121E-02
 TTTTTTTTTTTTTTTTTTTTTTTTTTTTTT CP_TOTE     TELAPSE        5.13 TCPU        5.08
 CYCLE  10   ALPHA    5.042357  EPSILON    1.503339  DELTA    2.7585E-02
 TTTTTTTTTTTTTTTTTTTTTTTTTTTTTT CP_TOTE     TELAPSE        5.27 TCPU        5.23
 CYCLE  11   ALPHA    5.062880  EPSILON    1.505388  DELTA    2.0523E-02
 TTTTTTTTTTTTTTTTTTTTTTTTTTTTTT CP_TOTE     TELAPSE        5.42 TCPU        5.37
 CYCLE  12   ALPHA    5.078166  EPSILON    1.506914  DELTA    1.5286E-02
 TTTTTTTTTTTTTTTTTTTTTTTTTTTTTT CP_TOTE     TELAPSE        5.56 TCPU        5.52
 CYCLE  13   ALPHA    5.089563  EPSILON    1.508051  DELTA    1.1397E-02
 TTTTTTTTTTTTTTTTTTTTTTTTTTTTTT CP_TOTE     TELAPSE        5.71 TCPU        5.66
 CYCLE  14   ALPHA    5.098069  EPSILON    1.508900  DELTA    8.5053E-03
 TTTTTTTTTTTTTTTTTTTTTTTTTTTTTT CP_TOTE     TELAPSE        5.86 TCPU        5.81
 CYCLE  15   ALPHA    5.104422  EPSILON    1.509534  DELTA    6.3528E-03
 TTTTTTTTTTTTTTTTTTTTTTTTTTTTTT CP_TOTE     TELAPSE        6.00 TCPU        5.95
 CYCLE  16   ALPHA    5.109171  EPSILON    1.510008  DELTA    4.7489E-03
 TTTTTTTTTTTTTTTTTTTTTTTTTTTTTT CP_TOTE     TELAPSE        6.14 TCPU        6.09
 CYCLE  17   ALPHA    5.112723  EPSILON    1.510363  DELTA    3.5525E-03
 TTTTTTTTTTTTTTTTTTTTTTTTTTTTTT CP_TOTE     TELAPSE        6.28 TCPU        6.23
 CYCLE  18   ALPHA    5.115382  EPSILON    1.510629  DELTA    2.6593E-03
 TTTTTTTTTTTTTTTTTTTTTTTTTTTTTT CP_TOTE     TELAPSE        6.43 TCPU        6.38
 CYCLE  19   ALPHA    5.117374  EPSILON    1.510827  DELTA    1.9920E-03
 TTTTTTTTTTTTTTTTTTTTTTTTTTTTTT CP_TOTE     TELAPSE        6.57 TCPU        6.52
 CYCLE  20   ALPHA    5.118867  EPSILON    1.510976  DELTA    1.4929E-03
 TTTTTTTTTTTTTTTTTTTTTTTTTTTTTT CP_TOTE     TELAPSE        6.73 TCPU        6.67
 CYCLE  21   ALPHA    5.119987  EPSILON    1.511088  DELTA    1.1195E-03
 TTTTTTTTTTTTTTTTTTTTTTTTTTTTTT CP_TOTE     TELAPSE        6.88 TCPU        6.82
 CYCLE  22   ALPHA    5.120827  EPSILON    1.511172  DELTA    8.3986E-04
 TTTTTTTTTTTTTTTTTTTTTTTTTTTTTT CP_SC       TELAPSE        6.91 TCPU        6.85

 *******************************************************************************

 ELECTRIC FIELD APPLIED ALONG CARTESIAN DIRECTION Y

 *******************************************************************************
 THE NUMBER OF SYMMETRY OPERATORS HAS BEEN REDUCED FROM 48 TO  1

 NEW GRID IN RECIPROCAL SPACE
 *******************************************************************************
 POINTS IN THE IBZ                 260 SHRINKING FACTORS               8  8  8
 *******************************************************************************
 *** K POINTS COORDINATES (OBLIQUE COORDINATES IN UNITS OF SHRINK FAC. )
   1-R(  0  0  0)   2-C(  1  0  0)   3-C(  0  1  0)   4-C(  7  7  7)
   5-C(  0  0  1)   6-C(  2  0  0)   7-C(  0  2  0)   8-C(  6  6  6)
   9-C(  0  0  2)  10-C(  3  0  0)  11-C(  0  3  0)  12-C(  5  5  5)
  13-C(  0  0  3)  14-R(  4  0  0)  15-R(  0  4  0)  16-R(  4  4  4)
  17-R(  0  0  4)  18-C(  1  1  0)  19-C(  0  1  1)  20-C(  1  0  1)
  21-C(  2  1  0)  22-C(  1  2  0)  23-C(  6  6  7)  24-C(  7  7  1)
  25-C(  0  2  1)  26-C(  1  0  2)  27-C(  1  7  7)  28-C(  2  0  1)
  29-C(  0  1  2)  30-C(  6  7  6)  31-C(  7  6  6)  32-C(  7  1  7)
  33-C(  3  1  0)  34-C(  1  3  0)  35-C(  5  5  6)  36-C(  7  7  2)
  37-C(  0  3  1)  38-C(  1  0  3)  39-C(  2  7  7)  40-C(  3  0  1)
  41-C(  0  1  3)  42-C(  5  6  5)  43-C(  6  5  5)  44-C(  7  2  7)
  45-C(  4  1  0)  46-C(  1  4  0)  47-C(  4  4  5)  48-C(  7  7  3)
  49-C(  0  4  1)  50-C(  1  0  4)  51-C(  3  7  7)  52-C(  4  0  1)
  53-C(  0  1  4)  54-C(  4  5  4)  55-C(  5  4  4)  56-C(  7  3  7)
  57-C(  5  1  0)  58-C(  1  5  0)  59-C(  3  3  4)  60-C(  7  7  4)
  61-C(  0  5  1)  62-C(  1  0  5)  63-C(  4  7  7)  64-C(  5  0  1)
  65-C(  0  1  5)  66-C(  3  4  3)  67-C(  4  3  3)  68-C(  7  4  7)
  69-C(  6  1  0)  70-C(  1  6  0)  71-C(  2  2  3)  72-C(  7  7  5)
  73-C(  0  6  1)  74-C(  1  0  6)  75-C(  5  7  7)  76-C(  6  0  1)
  77-C(  0  1  6)  78-C(  2  3  2)  79-C(  3  2  2)  80-C(  7  5  7)
  81-C(  7  1  0)  82-C(  1  1  2)  83-C(  0  7  1)  84-C(  1  0  7)
  85-C(  6  7  7)  86-C(  1  2  1)  87-C(  2  2  0)  88-C(  0  2  2)
  89-C(  2  0  2)  90-C(  3  2  0)  91-C(  2  3  0)  92-C(  5  5  7)
  93-C(  6  6  1)  94-C(  0  3  2)  95-C(  2  0  3)  96-C(  1  6  6)
  97-C(  3  0  2)  98-C(  0  2  3)  99-C(  5  7  5) 100-C(  7  5  5)
 101-C(  6  1  6) 102-C(  4  2  0) 103-C(  2  4  0) 104-C(  4  4  6)
 105-C(  6  6  2) 106-C(  0  4  2) 107-C(  2  0  4) 108-C(  2  6  6)
 109-C(  4  0  2) 110-C(  0  2  4) 111-C(  4  6  4) 112-C(  6  4  4)
 113-C(  6  2  6) 114-C(  5  2  0) 115-C(  2  5  0) 116-C(  3  3  5)
 117-C(  6  6  3) 118-C(  0  5  2) 119-C(  2  0  5) 120-C(  3  6  6)
 121-C(  5  0  2) 122-C(  0  2  5) 123-C(  3  5  3) 124-C(  5  3  3)
 125-C(  6  3  6) 126-C(  6  2  0) 127-C(  2  2  4) 128-C(  0  6  2)
 129-C(  2  0  6) 130-C(  4  6  6) 131-C(  2  4  2) 132-C(  3  3  0)
 133-C(  0  3  3) 134-C(  3  0  3) 135-C(  4  3  0) 136-C(  3  4  0)
 137-C(  4  4  7) 138-C(  5  5  1) 139-C(  0  4  3) 140-C(  3  0  4)
 141-C(  1  5  5) 142-C(  4  0  3) 143-C(  0  3  4) 144-C(  4  7  4)
 145-C(  7  4  4) 146-C(  5  1  5) 147-C(  5  3  0) 148-C(  3  3  6)
 149-C(  0  5  3) 150-C(  3  0  5) 151-C(  2  5  5) 152-C(  3  6  3)
 153-R(  4  4  0) 154-R(  0  4  4) 155-R(  4  0  4) 156-C(  3  2  1)
 157-C(  1  2  7) 158-C(  1  3  2) 159-C(  2  1  3) 160-C(  1  7  6)
 161-C(  2  7  1) 162-C(  6  5  7) 163-C(  6  7  1) 164-C(  5  7  6)
 165-C(  7  6  5) 166-C(  1  7  2) 167-C(  1  6  7) 168-C(  4  2  1)
 169-C(  1  3  7) 170-C(  4  5  6) 171-C(  7  6  2) 172-C(  1  4  2)
 173-C(  2  1  4) 174-C(  2  7  6) 175-C(  3  7  1) 176-C(  7  1  3)
 177-C(  5  6  4) 178-C(  6  4  5) 179-C(  6  2  7) 180-C(  6  4  7)
 181-C(  5  7  1) 182-C(  3  4  2) 183-C(  2  1  6) 184-C(  4  7  6)
 185-C(  7  6  4) 186-C(  1  6  2) 187-C(  1  5  7) 188-C(  7  1  5)
 189-C(  2  3  4) 190-C(  4  2  3) 191-C(  6  2  1) 192-C(  5  2  1)
 193-C(  1  4  7) 194-C(  3  4  5) 195-C(  7  6  3) 196-C(  1  5  2)
 197-C(  2  1  5) 198-C(  3  7  6) 199-C(  4  7  1) 200-C(  7  1  4)
 201-C(  4  5  3) 202-C(  5  3  4) 203-C(  6  3  7) 204-C(  4  3  1)
 205-C(  2  3  7) 206-C(  1  4  3) 207-C(  3  1  4) 208-C(  1  6  5)
 209-C(  3  7  2) 210-C(  5  4  7) 211-C(  5  6  1) 212-C(  4  7  5)
 213-C(  7  5  4) 214-C(  2  7  3) 215-C(  1  5  6) 216-C(  5  3  1)
 217-C(  2  4  7) 218-C(  3  4  6) 219-C(  6  5  2) 220-C(  1  5  3)
 221-C(  3  1  5) 222-C(  2  6  5) 223-C(  4  7  2) 224-C(  7  2  4)
 225-C(  4  6  3) 226-C(  6  3  4) 227-C(  5  2  6) 228-C(  5  3  7)
 229-C(  4  6  1) 230-C(  4  5  2) 231-C(  3  2  6) 232-C(  3  7  5)
 233-C(  7  5  3) 234-C(  2  6  3) 235-C(  1  4  6) 236-C(  6  1  4)
 237-C(  2  4  5) 238-C(  5  2  4) 239-C(  6  3  2) 240-C(  6  3  1)
 241-C(  2  3  5) 242-C(  1  6  3) 243-C(  3  1  6) 244-C(  3  6  5)
 245-C(  3  5  2) 246-C(  5  2  7) 247-C(  5  6  3) 248-C(  2  7  5)
 249-C(  7  5  2) 250-C(  2  5  3) 251-C(  3  5  6) 252-C(  5  4  1)
 253-C(  1  5  4) 254-C(  4  1  5) 255-C(  4  3  7) 256-C(  3  7  4)
 257-C(  7  4  3) 258-C(  6  4  2) 259-C(  2  6  4) 260-C(  4  2  6)

 GCALCO - MAX INDICES DIRECT LATTICE VECTOR    14    14    14
 NO.OF VECTORS CREATED 6999 STARS  105 RMAX    59.53536 BOHR

 MATRIX SIZE: P(G)   17290, F(G)    3362, P(G) IRR   10716, F(G) IRR    3962
 MAX G-VECTOR INDEX FOR 1- AND 2-ELECTRON INTEGRALS 247

 INFORMATION **** GENBUF **** COULOMB BIPO BUFFER LENGTH (WORDS) =       79850
 TTTTTTTTTTTTTTTTTTTTTTTTTTTTTT INPUT       TELAPSE        6.96 TCPU        6.90
 TTTTTTTTTTTTTTTTTTTTTTTTTTTTTT SYMM        TELAPSE        6.96 TCPU        6.90

 ***** NEW REFERENCE GEOMETRY *****
 TTTTTTTTTTTTTTTTTTTTTTTTTTTTTT INT_SCREEN  TELAPSE        6.96 TCPU        6.90
 INFORMATION **** GENBUF **** COULOMB BIPO BUFFER LENGTH (WORDS) =       79850
 INFORMATION **** EXCBUF **** EXCH. BIPO BUFFER: WORDS USED =      102474
 TTTTTTTTTTTTTTTTTTTTTTTTTTTTTT MONIRR      TELAPSE        6.96 TCPU        6.90

  GAUSS70 FOR COULOMB   GAUSS70 FOR EXCHANGE
 **SHELL_ORTHODOX** SPACE FOR BIEL. INTEGRALS    31 BUFFERS
 TTTTTTTTTTTTTTTTTTTTTTTTTTTTTT SHLC        TELAPSE        9.73 TCPU        9.66
 TTTTTTTTTTTTTTTTTTTTTTTTTTTTTT MONMAD      TELAPSE        9.78 TCPU        9.71
 TTTTTTTTTTTTTTTTTTTTTTTTTTTTTT INT_CALC    TELAPSE        9.78 TCPU        9.71
 CYCLE   0   ALPHA    3.519926  EPSILON    1.351367  DELTA    3.5199E+00
 TTTTTTTTTTTTTTTTTTTTTTTTTTTTTT CP_TOTE     TELAPSE        9.91 TCPU        9.85
 CYCLE   1   ALPHA    3.941641  EPSILON    1.393463  DELTA    4.2172E-01
 TTTTTTTTTTTTTTTTTTTTTTTTTTTTTT CP_TOTE     TELAPSE       10.06 TCPU        9.99
 CYCLE   2   ALPHA    4.250912  EPSILON    1.424335  DELTA    3.0927E-01
 TTTTTTTTTTTTTTTTTTTTTTTTTTTTTT CP_TOTE     TELAPSE       10.20 TCPU       10.13
 CYCLE   3   ALPHA    4.478184  EPSILON    1.447022  DELTA    2.2727E-01
 TTTTTTTTTTTTTTTTTTTTTTTTTTTTTT CP_TOTE     TELAPSE       10.34 TCPU       10.27
 CYCLE   4   ALPHA    4.645519  EPSILON    1.463726  DELTA    1.6733E-01
 TTTTTTTTTTTTTTTTTTTTTTTTTTTTTT CP_TOTE     TELAPSE       10.48 TCPU       10.41
 CYCLE   5   ALPHA    4.768947  EPSILON    1.476047  DELTA    1.2343E-01
 TTTTTTTTTTTTTTTTTTTTTTTTTTTTTT CP_TOTE     TELAPSE       10.62 TCPU       10.55
 CYCLE   6   ALPHA    4.860143  EPSILON    1.485150  DELTA    9.1196E-02
 TTTTTTTTTTTTTTTTTTTTTTTTTTTTTT CP_TOTE     TELAPSE       10.76 TCPU       10.69
 CYCLE   7   ALPHA    4.927632  EPSILON    1.491887  DELTA    6.7489E-02
 TTTTTTTTTTTTTTTTTTTTTTTTTTTTTT CP_TOTE     TELAPSE       10.92 TCPU       10.85
 CYCLE   8   ALPHA    4.977650  EPSILON    1.496880  DELTA    5.0018E-02
 TTTTTTTTTTTTTTTTTTTTTTTTTTTTTT CP_TOTE     TELAPSE       11.06 TCPU       10.99
 CYCLE   9   ALPHA    5.014772  EPSILON    1.500585  DELTA    3.7121E-02
 TTTTTTTTTTTTTTTTTTTTTTTTTTTTTT CP_TOTE     TELAPSE       11.20 TCPU       11.13
 CYCLE  10   ALPHA    5.042357  EPSILON    1.503339  DELTA    2.7585E-02
 TTTTTTTTTTTTTTTTTTTTTTTTTTTTTT CP_TOTE     TELAPSE       11.35 TCPU       11.27
 CYCLE  11   ALPHA    5.062881  EPSILON    1.505388  DELTA    2.0523E-02
 TTTTTTTTTTTTTTTTTTTTTTTTTTTTTT CP_TOTE     TELAPSE       11.49 TCPU       11.41
 CYCLE  12   ALPHA    5.078167  EPSILON    1.506914  DELTA    1.5286E-02
 TTTTTTTTTTTTTTTTTTTTTTTTTTTTTT CP_TOTE     TELAPSE       11.64 TCPU       11.56
 CYCLE  13   ALPHA    5.089564  EPSILON    1.508051  DELTA    1.1397E-02
 TTTTTTTTTTTTTTTTTTTTTTTTTTTTTT CP_TOTE     TELAPSE       11.78 TCPU       11.70
 CYCLE  14   ALPHA    5.098069  EPSILON    1.508900  DELTA    8.5053E-03
 TTTTTTTTTTTTTTTTTTTTTTTTTTTTTT CP_TOTE     TELAPSE       11.93 TCPU       11.84
 CYCLE  15   ALPHA    5.104422  EPSILON    1.509534  DELTA    6.3528E-03
 TTTTTTTTTTTTTTTTTTTTTTTTTTTTTT CP_TOTE     TELAPSE       12.07 TCPU       11.98
 CYCLE  16   ALPHA    5.109171  EPSILON    1.510008  DELTA    4.7489E-03
 TTTTTTTTTTTTTTTTTTTTTTTTTTTTTT CP_TOTE     TELAPSE       12.22 TCPU       12.13
 CYCLE  17   ALPHA    5.112723  EPSILON    1.510363  DELTA    3.5525E-03
 TTTTTTTTTTTTTTTTTTTTTTTTTTTTTT CP_TOTE     TELAPSE       12.36 TCPU       12.27
 CYCLE  18   ALPHA    5.115383  EPSILON    1.510629  DELTA    2.6593E-03
 TTTTTTTTTTTTTTTTTTTTTTTTTTTTTT CP_TOTE     TELAPSE       12.50 TCPU       12.42
 CYCLE  19   ALPHA    5.117375  EPSILON    1.510827  DELTA    1.9920E-03
 TTTTTTTTTTTTTTTTTTTTTTTTTTTTTT CP_TOTE     TELAPSE       12.64 TCPU       12.56
 CYCLE  20   ALPHA    5.118868  EPSILON    1.510976  DELTA    1.4929E-03
 TTTTTTTTTTTTTTTTTTTTTTTTTTTTTT CP_TOTE     TELAPSE       12.79 TCPU       12.70
 CYCLE  21   ALPHA    5.119987  EPSILON    1.511088  DELTA    1.1195E-03
 TTTTTTTTTTTTTTTTTTTTTTTTTTTTTT CP_TOTE     TELAPSE       12.94 TCPU       12.85
 CYCLE  22   ALPHA    5.120827  EPSILON    1.511172  DELTA    8.3986E-04
 TTTTTTTTTTTTTTTTTTTTTTTTTTTTTT CP_SC       TELAPSE       12.97 TCPU       12.88

 *******************************************************************************

 ELECTRIC FIELD APPLIED ALONG CARTESIAN DIRECTION Z

 *******************************************************************************
 THE NUMBER OF SYMMETRY OPERATORS HAS BEEN REDUCED FROM 48 TO  1

 NEW GRID IN RECIPROCAL SPACE
 *******************************************************************************
 POINTS IN THE IBZ                 260 SHRINKING FACTORS               8  8  8
 *******************************************************************************
 *** K POINTS COORDINATES (OBLIQUE COORDINATES IN UNITS OF SHRINK FAC. )
   1-R(  0  0  0)   2-C(  1  0  0)   3-C(  0  1  0)   4-C(  7  7  7)
   5-C(  0  0  1)   6-C(  2  0  0)   7-C(  0  2  0)   8-C(  6  6  6)
   9-C(  0  0  2)  10-C(  3  0  0)  11-C(  0  3  0)  12-C(  5  5  5)
  13-C(  0  0  3)  14-R(  4  0  0)  15-R(  0  4  0)  16-R(  4  4  4)
  17-R(  0  0  4)  18-C(  1  1  0)  19-C(  0  1  1)  20-C(  1  0  1)
  21-C(  2  1  0)  22-C(  1  2  0)  23-C(  6  6  7)  24-C(  7  7  1)
  25-C(  0  2  1)  26-C(  1  0  2)  27-C(  1  7  7)  28-C(  2  0  1)
  29-C(  0  1  2)  30-C(  6  7  6)  31-C(  7  6  6)  32-C(  7  1  7)
  33-C(  3  1  0)  34-C(  1  3  0)  35-C(  5  5  6)  36-C(  7  7  2)
  37-C(  0  3  1)  38-C(  1  0  3)  39-C(  2  7  7)  40-C(  3  0  1)
  41-C(  0  1  3)  42-C(  5  6  5)  43-C(  6  5  5)  44-C(  7  2  7)
  45-C(  4  1  0)  46-C(  1  4  0)  47-C(  4  4  5)  48-C(  7  7  3)
  49-C(  0  4  1)  50-C(  1  0  4)  51-C(  3  7  7)  52-C(  4  0  1)
  53-C(  0  1  4)  54-C(  4  5  4)  55-C(  5  4  4)  56-C(  7  3  7)
  57-C(  5  1  0)  58-C(  1  5  0)  59-C(  3  3  4)  60-C(  7  7  4)
  61-C(  0  5  1)  62-C(  1  0  5)  63-C(  4  7  7)  64-C(  5  0  1)
  65-C(  0  1  5)  66-C(  3  4  3)  67-C(  4  3  3)  68-C(  7  4  7)
  69-C(  6  1  0)  70-C(  1  6  0)  71-C(  2  2  3)  72-C(  7  7  5)
  73-C(  0  6  1)  74-C(  1  0  6)  75-C(  5  7  7)  76-C(  6  0  1)
  77-C(  0  1  6)  78-C(  2  3  2)  79-C(  3  2  2)  80-C(  7  5  7)
  81-C(  7  1  0)  82-C(  1  1  2)  83-C(  0  7  1)  84-C(  1  0  7)
  85-C(  6  7  7)  86-C(  1  2  1)  87-C(  2  2  0)  88-C(  0  2  2)
  89-C(  2  0  2)  90-C(  3  2  0)  91-C(  2  3  0)  92-C(  5  5  7)
  93-C(  6  6  1)  94-C(  0  3  2)  95-C(  2  0  3)  96-C(  1  6  6)
  97-C(  3  0  2)  98-C(  0  2  3)  99-C(  5  7  5) 100-C(  7  5  5)
 101-C(  6  1  6) 102-C(  4  2  0) 103-C(  2  4  0) 104-C(  4  4  6)
 105-C(  6  6  2) 106-C(  0  4  2) 107-C(  2  0  4) 108-C(  2  6  6)
 109-C(  4  0  2) 110-C(  0  2  4) 111-C(  4  6  4) 112-C(  6  4  4)
 113-C(  6  2  6) 114-C(  5  2  0) 115-C(  2  5  0) 116-C(  3  3  5)
 117-C(  6  6  3) 118-C(  0  5  2) 119-C(  2  0  5) 120-C(  3  6  6)
 121-C(  5  0  2) 122-C(  0  2  5) 123-C(  3  5  3) 124-C(  5  3  3)
 125-C(  6  3  6) 126-C(  6  2  0) 127-C(  2  2  4) 128-C(  0  6  2)
 129-C(  2  0  6) 130-C(  4  6  6) 131-C(  2  4  2) 132-C(  3  3  0)
 133-C(  0  3  3) 134-C(  3  0  3) 135-C(  4  3  0) 136-C(  3  4  0)
 137-C(  4  4  7) 138-C(  5  5  1) 139-C(  0  4  3) 140-C(  3  0  4)
 141-C(  1  5  5) 142-C(  4  0  3) 143-C(  0  3  4) 144-C(  4  7  4)
 145-C(  7  4  4) 146-C(  5  1  5) 147-C(  5  3  0) 148-C(  3  3  6)
 149-C(  0  5  3) 150-C(  3  0  5) 151-C(  2  5  5) 152-C(  3  6  3)
 153-R(  4  4  0) 154-R(  0  4  4) 155-R(  4  0  4) 156-C(  3  2  1)
 157-C(  1  2  7) 158-C(  1  3  2) 159-C(  2  1  3) 160-C(  1  7  6)
 161-C(  2  7  1) 162-C(  6  5  7) 163-C(  6  7  1) 164-C(  5  7  6)
 165-C(  7  6  5) 166-C(  1  7  2) 167-C(  1  6  7) 168-C(  4  2  1)
 169-C(  1  3  7) 170-C(  4  5  6) 171-C(  7  6  2) 172-C(  1  4  2)
 173-C(  2  1  4) 174-C(  2  7  6) 175-C(  3  7  1) 176-C(  7  1  3)
 177-C(  5  6  4) 178-C(  6  4  5) 179-C(  6  2  7) 180-C(  6  4  7)
 181-C(  5  7  1) 182-C(  3  4  2) 183-C(  2  1  6) 184-C(  4  7  6)
 185-C(  7  6  4) 186-C(  1  6  2) 187-C(  1  5  7) 188-C(  7  1  5)
 189-C(  2  3  4) 190-C(  4  2  3) 191-C(  6  2  1) 192-C(  5  2  1)
 193-C(  1  4  7) 194-C(  3  4  5) 195-C(  7  6  3) 196-C(  1  5  2)
 197-C(  2  1  5) 198-C(  3  7  6) 199-C(  4  7  1) 200-C(  7  1  4)
 201-C(  4  5  3) 202-C(  5  3  4) 203-C(  6  3  7) 204-C(  4  3  1)
 205-C(  2  3  7) 206-C(  1  4  3) 207-C(  3  1  4) 208-C(  1  6  5)
 209-C(  3  7  2) 210-C(  5  4  7) 211-C(  5  6  1) 212-C(  4  7  5)
 213-C(  7  5  4) 214-C(  2  7  3) 215-C(  1  5  6) 216-C(  5  3  1)
 217-C(  2  4  7) 218-C(  3  4  6) 219-C(  6  5  2) 220-C(  1  5  3)
 221-C(  3  1  5) 222-C(  2  6  5) 223-C(  4  7  2) 224-C(  7  2  4)
 225-C(  4  6  3) 226-C(  6  3  4) 227-C(  5  2  6) 228-C(  5  3  7)
 229-C(  4  6  1) 230-C(  4  5  2) 231-C(  3  2  6) 232-C(  3  7  5)
 233-C(  7  5  3) 234-C(  2  6  3) 235-C(  1  4  6) 236-C(  6  1  4)
 237-C(  2  4  5) 238-C(  5  2  4) 239-C(  6  3  2) 240-C(  6  3  1)
 241-C(  2  3  5) 242-C(  1  6  3) 243-C(  3  1  6) 244-C(  3  6  5)
 245-C(  3  5  2) 246-C(  5  2  7) 247-C(  5  6  3) 248-C(  2  7  5)
 249-C(  7  5  2) 250-C(  2  5  3) 251-C(  3  5  6) 252-C(  5  4  1)
 253-C(  1  5  4) 254-C(  4  1  5) 255-C(  4  3  7) 256-C(  3  7  4)
 257-C(  7  4  3) 258-C(  6  4  2) 259-C(  2  6  4) 260-C(  4  2  6)

 GCALCO - MAX INDICES DIRECT LATTICE VECTOR    14    14    14
 NO.OF VECTORS CREATED 6999 STARS  105 RMAX    59.53536 BOHR

 MATRIX SIZE: P(G)   17290, F(G)    3362, P(G) IRR   10716, F(G) IRR    3962
 MAX G-VECTOR INDEX FOR 1- AND 2-ELECTRON INTEGRALS 247

 INFORMATION **** GENBUF **** COULOMB BIPO BUFFER LENGTH (WORDS) =       79850
 TTTTTTTTTTTTTTTTTTTTTTTTTTTTTT INPUT       TELAPSE       13.02 TCPU       12.93
 TTTTTTTTTTTTTTTTTTTTTTTTTTTTTT SYMM        TELAPSE       13.02 TCPU       12.93

 ***** NEW REFERENCE GEOMETRY *****
 TTTTTTTTTTTTTTTTTTTTTTTTTTTTTT INT_SCREEN  TELAPSE       13.02 TCPU       12.93
 INFORMATION **** GENBUF **** COULOMB BIPO BUFFER LENGTH (WORDS) =       79850
 INFORMATION **** EXCBUF **** EXCH. BIPO BUFFER: WORDS USED =      102474
 TTTTTTTTTTTTTTTTTTTTTTTTTTTTTT MONIRR      TELAPSE       13.03 TCPU       12.94

  GAUSS70 FOR COULOMB   GAUSS70 FOR EXCHANGE
 **SHELL_ORTHODOX** SPACE FOR BIEL. INTEGRALS    31 BUFFERS
 TTTTTTTTTTTTTTTTTTTTTTTTTTTTTT SHLC        TELAPSE       15.79 TCPU       15.69
 TTTTTTTTTTTTTTTTTTTTTTTTTTTTTT MONMAD      TELAPSE       15.84 TCPU       15.74
 TTTTTTTTTTTTTTTTTTTTTTTTTTTTTT INT_CALC    TELAPSE       15.84 TCPU       15.74
 CYCLE   0   ALPHA    3.519927  EPSILON    1.351367  DELTA    3.5199E+00
 TTTTTTTTTTTTTTTTTTTTTTTTTTTTTT CP_TOTE     TELAPSE       15.97 TCPU       15.88
 CYCLE   1   ALPHA    3.941643  EPSILON    1.393463  DELTA    4.2172E-01
 TTTTTTTTTTTTTTTTTTTTTTTTTTTTTT CP_TOTE     TELAPSE       16.12 TCPU       16.02
 CYCLE   2   ALPHA    4.250914  EPSILON    1.424335  DELTA    3.0927E-01
 TTTTTTTTTTTTTTTTTTTTTTTTTTTTTT CP_TOTE     TELAPSE       16.25 TCPU       16.16
 CYCLE   3   ALPHA    4.478186  EPSILON    1.447022  DELTA    2.2727E-01
 TTTTTTTTTTTTTTTTTTTTTTTTTTTTTT CP_TOTE     TELAPSE       16.40 TCPU       16.30
 CYCLE   4   ALPHA    4.645521  EPSILON    1.463726  DELTA    1.6734E-01
 TTTTTTTTTTTTTTTTTTTTTTTTTTTTTT CP_TOTE     TELAPSE       16.54 TCPU       16.44
 CYCLE   5   ALPHA    4.768949  EPSILON    1.476047  DELTA    1.2343E-01
 TTTTTTTTTTTTTTTTTTTTTTTTTTTTTT CP_TOTE     TELAPSE       16.68 TCPU       16.58
 CYCLE   6   ALPHA    4.860146  EPSILON    1.485150  DELTA    9.1196E-02
 TTTTTTTTTTTTTTTTTTTTTTTTTTTTTT CP_TOTE     TELAPSE       16.83 TCPU       16.72
 CYCLE   7   ALPHA    4.927635  EPSILON    1.491887  DELTA    6.7489E-02
 TTTTTTTTTTTTTTTTTTTTTTTTTTTTTT CP_TOTE     TELAPSE       16.98 TCPU       16.87
 CYCLE   8   ALPHA    4.977653  EPSILON    1.496880  DELTA    5.0018E-02
 TTTTTTTTTTTTTTTTTTTTTTTTTTTTTT CP_TOTE     TELAPSE       17.12 TCPU       17.01
 CYCLE   9   ALPHA    5.014774  EPSILON    1.500586  DELTA    3.7121E-02
 TTTTTTTTTTTTTTTTTTTTTTTTTTTTTT CP_TOTE     TELAPSE       17.26 TCPU       17.15
 CYCLE  10   ALPHA    5.042360  EPSILON    1.503339  DELTA    2.7585E-02
 TTTTTTTTTTTTTTTTTTTTTTTTTTTTTT CP_TOTE     TELAPSE       17.40 TCPU       17.29
 CYCLE  11   ALPHA    5.062883  EPSILON    1.505388  DELTA    2.0523E-02
 TTTTTTTTTTTTTTTTTTTTTTTTTTTTTT CP_TOTE     TELAPSE       17.54 TCPU       17.43
 CYCLE  12   ALPHA    5.078169  EPSILON    1.506914  DELTA    1.5286E-02
 TTTTTTTTTTTTTTTTTTTTTTTTTTTTTT CP_TOTE     TELAPSE       17.68 TCPU       17.57
 CYCLE  13   ALPHA    5.089566  EPSILON    1.508052  DELTA    1.1397E-02
 TTTTTTTTTTTTTTTTTTTTTTTTTTTTTT CP_TOTE     TELAPSE       17.82 TCPU       17.71
 CYCLE  14   ALPHA    5.098072  EPSILON    1.508901  DELTA    8.5053E-03
 TTTTTTTTTTTTTTTTTTTTTTTTTTTTTT CP_TOTE     TELAPSE       17.96 TCPU       17.85
 CYCLE  15   ALPHA    5.104424  EPSILON    1.509535  DELTA    6.3528E-03
 TTTTTTTTTTTTTTTTTTTTTTTTTTTTTT CP_TOTE     TELAPSE       18.11 TCPU       17.99
 CYCLE  16   ALPHA    5.109173  EPSILON    1.510009  DELTA    4.7489E-03
 TTTTTTTTTTTTTTTTTTTTTTTTTTTTTT CP_TOTE     TELAPSE       18.25 TCPU       18.14
 CYCLE  17   ALPHA    5.112726  EPSILON    1.510363  DELTA    3.5525E-03
 TTTTTTTTTTTTTTTTTTTTTTTTTTTTTT CP_TOTE     TELAPSE       18.39 TCPU       18.28
 CYCLE  18   ALPHA    5.115385  EPSILON    1.510629  DELTA    2.6593E-03
 TTTTTTTTTTTTTTTTTTTTTTTTTTTTTT CP_TOTE     TELAPSE       18.53 TCPU       18.42
 CYCLE  19   ALPHA    5.117377  EPSILON    1.510828  DELTA    1.9920E-03
 TTTTTTTTTTTTTTTTTTTTTTTTTTTTTT CP_TOTE     TELAPSE       18.68 TCPU       18.56
 CYCLE  20   ALPHA    5.118870  EPSILON    1.510977  DELTA    1.4929E-03
 TTTTTTTTTTTTTTTTTTTTTTTTTTTTTT CP_TOTE     TELAPSE       18.82 TCPU       18.71
 CYCLE  21   ALPHA    5.119990  EPSILON    1.511088  DELTA    1.1195E-03
 TTTTTTTTTTTTTTTTTTTTTTTTTTTTTT CP_TOTE     TELAPSE       18.97 TCPU       18.85
 CYCLE  22   ALPHA    5.120830  EPSILON    1.511172  DELTA    8.3987E-04
 TTTTTTTTTTTTTTTTTTTTTTTTTTTTTT CP_SC       TELAPSE       18.99 TCPU       18.88

 *******************************************************************************

 POLARIZABILITY (ALPHA), DIELECTRIC (EPSILON) AND FIRST-ORDER ELECTRIC
 SUSCEPTIBILITY (CHI(1)) TENSORS (INDEPENDENT COMPONENTS)

  COMPONENT    ALPHA(REAL, IMAGINARY)         EPSILON       CHI(1)
     XX        5.1208        0.0000        1.5112        0.5112
     XY        0.0000        0.0000        0.0000        0.0000
     XZ        0.0000        0.0000        0.0000        0.0000
     YY        5.1208        0.0000        1.5112        0.5112
     YZ        0.0000        0.0000        0.0000        0.0000
     ZZ        5.1208        0.0000        1.5112        0.5112

 DIELECTRIC TENSOR

 TENSOR IN PRINCIPAL AXES SYSTEM
 AA  1.511172E+00 BB  1.511172E+00 CC  1.511172E+00

 REFRACTIVE INDICES 
 AA  1.229297E+00 BB  1.229297E+00 CC  1.229297E+00

 OPTICALLY ISOTROPIC CRYSTAL

 EPSILON=N**2=1+CHI(1)=1+ALPHA*4*PI/V,   4*PI/V=   0.09982 BOHR**(-3)
 ALPHA IN BOHR**3; EPSILON AND CHI(1) ARE DIMENSIONLESS.
 *******************************************************************************

 *******************************************************************************

 FIRST HYPERPOLARIZABILITY (BETA) AND SECOND ELECTRIC SUSCEPTIBILITY (CHI(2))
 TENSORS (INDEPENDENT COMPONENTS)

  COMPONENT      BETA                        CHI(2)       d(MKS)       d(cgs)
 *******************************************************************************

     XXX        0.0000  (     -0.0000)       0.0000       0.0000       0.0000
     XXY       -0.0000  (     -0.0000)      -0.0000      -0.0000      -0.0000
     XXZ        0.0000  (     -0.0000)       0.0000       0.0000       0.0000
     XYY        0.0000  (      0.0000)       0.0000       0.0000       0.0000
     XYZ       -0.0000  (      0.0000)      -0.0000      -0.0000      -0.0000
     XZZ        0.0000  (      0.0000)       0.0000       0.0000       0.0000
     YYY       -0.0000  (      0.0000)      -0.0000      -0.0000      -0.0000
     YYZ        0.0000  (      0.0000)       0.0000       0.0000       0.0000
     YZZ       -0.0000  (      0.0000)      -0.0000      -0.0000      -0.0000
     ZZZ        0.0000  (      0.0000)       0.0000       0.0000       0.0000
 *******************************************************************************
 CHI(2) = BETA*2PI/V

 BETA AND CHI(2) IN A.U.:    [BETA] = M**(-1/2) L**(7/2) T
                             [CHI(2)] = 1/F
                             (L=LENGTH, M=MASS, T=TIME, F=FIELD INTENSITY)

 ELECTRIC SUSCEPTIBILITY IN THE SECOND HARMONIC GENERATION (SHG) CONVENTION IS:
                   d(A.U.)= 1/2 CHI(2)
                   d(MKS) = d(A.U.)/0.514220632 pm/V
                   d(CGS) = d(A.U.)/(4PI*1.7152535)  10**(-7) esu

 FIELD INTENSITY: 1 A.U. = 0.514220632*10**(11) V/m = 1.7152535*10**7 esu
 BEWARE:                CHI(2)=P/(E0*F**2)   (MKS)
                        CHI(2)=P/F**2        (CGS)
 WHERE P IS THE POLARIZATION VECTOR AND F IS THE APPLIED ELECTRIC FIELD.
 CONSISTENCY IS  PRESERVED BY MULTIPLYING THE CGS VALUE TIMES THE PERMITTIVITY
 OF THE VACUUM, E0 (CONVERSION FACTORS FROM www.physics.nist.gov/constants).
 IN PARENTHESIS: BETA BEFORE SYMMETRIZATION.

 *******************************************************************************

 INFORMATION **** CP2_DRIVER **** CONVERGENCE ON PSEUDO DE: 10**          -3
 INFORMATION **** CP2_DRIVER **** MAX NUMBER OF CPHF/CPKS CYCLES         200
 INFORMATION **** CP2_DRIVER **** CPHF/CPKS DAMPING PERCENTAGE:          60

 *******************************************************************************

 ELECTRIC FIELD APPLIED ALONG CARTESIAN DIRECTIONS XX

 *******************************************************************************
 NEW GRID IN RECIPROCAL SPACE
 *******************************************************************************
 POINTS IN THE IBZ                 260 SHRINKING FACTORS               8  8  8
 *******************************************************************************
 *** K POINTS COORDINATES (OBLIQUE COORDINATES IN UNITS OF SHRINK FAC. )
   1-R(  0  0  0)   2-C(  1  0  0)   3-C(  0  1  0)   4-C(  7  7  7)
   5-C(  0  0  1)   6-C(  2  0  0)   7-C(  0  2  0)   8-C(  6  6  6)
   9-C(  0  0  2)  10-C(  3  0  0)  11-C(  0  3  0)  12-C(  5  5  5)
  13-C(  0  0  3)  14-R(  4  0  0)  15-R(  0  4  0)  16-R(  4  4  4)
  17-R(  0  0  4)  18-C(  1  1  0)  19-C(  0  1  1)  20-C(  1  0  1)
  21-C(  2  1  0)  22-C(  1  2  0)  23-C(  6  6  7)  24-C(  7  7  1)
  25-C(  0  2  1)  26-C(  1  0  2)  27-C(  1  7  7)  28-C(  2  0  1)
  29-C(  0  1  2)  30-C(  6  7  6)  31-C(  7  6  6)  32-C(  7  1  7)
  33-C(  3  1  0)  34-C(  1  3  0)  35-C(  5  5  6)  36-C(  7  7  2)
  37-C(  0  3  1)  38-C(  1  0  3)  39-C(  2  7  7)  40-C(  3  0  1)
  41-C(  0  1  3)  42-C(  5  6  5)  43-C(  6  5  5)  44-C(  7  2  7)
  45-C(  4  1  0)  46-C(  1  4  0)  47-C(  4  4  5)  48-C(  7  7  3)
  49-C(  0  4  1)  50-C(  1  0  4)  51-C(  3  7  7)  52-C(  4  0  1)
  53-C(  0  1  4)  54-C(  4  5  4)  55-C(  5  4  4)  56-C(  7  3  7)
  57-C(  5  1  0)  58-C(  1  5  0)  59-C(  3  3  4)  60-C(  7  7  4)
  61-C(  0  5  1)  62-C(  1  0  5)  63-C(  4  7  7)  64-C(  5  0  1)
  65-C(  0  1  5)  66-C(  3  4  3)  67-C(  4  3  3)  68-C(  7  4  7)
  69-C(  6  1  0)  70-C(  1  6  0)  71-C(  2  2  3)  72-C(  7  7  5)
  73-C(  0  6  1)  74-C(  1  0  6)  75-C(  5  7  7)  76-C(  6  0  1)
  77-C(  0  1  6)  78-C(  2  3  2)  79-C(  3  2  2)  80-C(  7  5  7)
  81-C(  7  1  0)  82-C(  1  1  2)  83-C(  0  7  1)  84-C(  1  0  7)
  85-C(  6  7  7)  86-C(  1  2  1)  87-C(  2  2  0)  88-C(  0  2  2)
  89-C(  2  0  2)  90-C(  3  2  0)  91-C(  2  3  0)  92-C(  5  5  7)
  93-C(  6  6  1)  94-C(  0  3  2)  95-C(  2  0  3)  96-C(  1  6  6)
  97-C(  3  0  2)  98-C(  0  2  3)  99-C(  5  7  5) 100-C(  7  5  5)
 101-C(  6  1  6) 102-C(  4  2  0) 103-C(  2  4  0) 104-C(  4  4  6)
 105-C(  6  6  2) 106-C(  0  4  2) 107-C(  2  0  4) 108-C(  2  6  6)
 109-C(  4  0  2) 110-C(  0  2  4) 111-C(  4  6  4) 112-C(  6  4  4)
 113-C(  6  2  6) 114-C(  5  2  0) 115-C(  2  5  0) 116-C(  3  3  5)
 117-C(  6  6  3) 118-C(  0  5  2) 119-C(  2  0  5) 120-C(  3  6  6)
 121-C(  5  0  2) 122-C(  0  2  5) 123-C(  3  5  3) 124-C(  5  3  3)
 125-C(  6  3  6) 126-C(  6  2  0) 127-C(  2  2  4) 128-C(  0  6  2)
 129-C(  2  0  6) 130-C(  4  6  6) 131-C(  2  4  2) 132-C(  3  3  0)
 133-C(  0  3  3) 134-C(  3  0  3) 135-C(  4  3  0) 136-C(  3  4  0)
 137-C(  4  4  7) 138-C(  5  5  1) 139-C(  0  4  3) 140-C(  3  0  4)
 141-C(  1  5  5) 142-C(  4  0  3) 143-C(  0  3  4) 144-C(  4  7  4)
 145-C(  7  4  4) 146-C(  5  1  5) 147-C(  5  3  0) 148-C(  3  3  6)
 149-C(  0  5  3) 150-C(  3  0  5) 151-C(  2  5  5) 152-C(  3  6  3)
 153-R(  4  4  0) 154-R(  0  4  4) 155-R(  4  0  4) 156-C(  3  2  1)
 157-C(  1  2  7) 158-C(  1  3  2) 159-C(  2  1  3) 160-C(  1  7  6)
 161-C(  2  7  1) 162-C(  6  5  7) 163-C(  6  7  1) 164-C(  5  7  6)
 165-C(  7  6  5) 166-C(  1  7  2) 167-C(  1  6  7) 168-C(  4  2  1)
 169-C(  1  3  7) 170-C(  4  5  6) 171-C(  7  6  2) 172-C(  1  4  2)
 173-C(  2  1  4) 174-C(  2  7  6) 175-C(  3  7  1) 176-C(  7  1  3)
 177-C(  5  6  4) 178-C(  6  4  5) 179-C(  6  2  7) 180-C(  6  4  7)
 181-C(  5  7  1) 182-C(  3  4  2) 183-C(  2  1  6) 184-C(  4  7  6)
 185-C(  7  6  4) 186-C(  1  6  2) 187-C(  1  5  7) 188-C(  7  1  5)
 189-C(  2  3  4) 190-C(  4  2  3) 191-C(  6  2  1) 192-C(  5  2  1)
 193-C(  1  4  7) 194-C(  3  4  5) 195-C(  7  6  3) 196-C(  1  5  2)
 197-C(  2  1  5) 198-C(  3  7  6) 199-C(  4  7  1) 200-C(  7  1  4)
 201-C(  4  5  3) 202-C(  5  3  4) 203-C(  6  3  7) 204-C(  4  3  1)
 205-C(  2  3  7) 206-C(  1  4  3) 207-C(  3  1  4) 208-C(  1  6  5)
 209-C(  3  7  2) 210-C(  5  4  7) 211-C(  5  6  1) 212-C(  4  7  5)
 213-C(  7  5  4) 214-C(  2  7  3) 215-C(  1  5  6) 216-C(  5  3  1)
 217-C(  2  4  7) 218-C(  3  4  6) 219-C(  6  5  2) 220-C(  1  5  3)
 221-C(  3  1  5) 222-C(  2  6  5) 223-C(  4  7  2) 224-C(  7  2  4)
 225-C(  4  6  3) 226-C(  6  3  4) 227-C(  5  2  6) 228-C(  5  3  7)
 229-C(  4  6  1) 230-C(  4  5  2) 231-C(  3  2  6) 232-C(  3  7  5)
 233-C(  7  5  3) 234-C(  2  6  3) 235-C(  1  4  6) 236-C(  6  1  4)
 237-C(  2  4  5) 238-C(  5  2  4) 239-C(  6  3  2) 240-C(  6  3  1)
 241-C(  2  3  5) 242-C(  1  6  3) 243-C(  3  1  6) 244-C(  3  6  5)
 245-C(  3  5  2) 246-C(  5  2  7) 247-C(  5  6  3) 248-C(  2  7  5)
 249-C(  7  5  2) 250-C(  2  5  3) 251-C(  3  5  6) 252-C(  5  4  1)
 253-C(  1  5  4) 254-C(  4  1  5) 255-C(  4  3  7) 256-C(  3  7  4)
 257-C(  7  4  3) 258-C(  6  4  2) 259-C(  2  6  4) 260-C(  4  2  6)

 MATRIX SIZE: P(G)   17290, F(G)    3362, P(G) IRR   10716, F(G) IRR    3962
 MAX G-VECTOR INDEX FOR 1- AND 2-ELECTRON INTEGRALS 247

 INFORMATION **** GENBUF **** COULOMB BIPO BUFFER LENGTH (WORDS) =       79850
 TTTTTTTTTTTTTTTTTTTTTTTTTTTTTT INPUT       TELAPSE       19.08 TCPU       18.96
 TTTTTTTTTTTTTTTTTTTTTTTTTTTTTT SYMM        TELAPSE       19.08 TCPU       18.96

 ***** NEW REFERENCE GEOMETRY *****
 TTTTTTTTTTTTTTTTTTTTTTTTTTTTTT INT_SCREEN  TELAPSE       19.08 TCPU       18.96
 INFORMATION **** GENBUF **** COULOMB BIPO BUFFER LENGTH (WORDS) =       79850
 INFORMATION **** EXCBUF **** EXCH. BIPO BUFFER: WORDS USED =      102474
 TTTTTTTTTTTTTTTTTTTTTTTTTTTTTT MONIRR      TELAPSE       19.09 TCPU       18.97

  GAUSS70 FOR COULOMB   GAUSS70 FOR EXCHANGE
 **SHELL_ORTHODOX** SPACE FOR BIEL. INTEGRALS    31 BUFFERS
 TTTTTTTTTTTTTTTTTTTTTTTTTTTTTT SHLC        TELAPSE       21.86 TCPU       21.73
 TTTTTTTTTTTTTTTTTTTTTTTTTTTTTT MONMAD      TELAPSE       21.91 TCPU       21.78
 TTTTTTTTTTTTTTTTTTTTTTTTTTTTTT INT_CALC    TELAPSE       21.91 TCPU       21.79
 TTTTTTTTTTTTTTTTTTTTTTTTTTTTTT CP_TOTE     TELAPSE       22.04 TCPU       21.92
 CYCLE   0  PSEUDO-ENERGY DERIVATIVE       -9.904586E+00  DELTA   -9.9046E+00
 TTTTTTTTTTTTTTTTTTTTTTTTTTTTTT CP_TOTE     TELAPSE       22.20 TCPU       22.07
 CYCLE   1  PSEUDO-ENERGY DERIVATIVE       -4.306081E+01  DELTA   -3.3156E+01
 TTTTTTTTTTTTTTTTTTTTTTTTTTTTTT CP_TOTE     TELAPSE       22.35 TCPU       22.22
 CYCLE   2  PSEUDO-ENERGY DERIVATIVE       -6.751156E+01  DELTA   -2.4451E+01
 TTTTTTTTTTTTTTTTTTTTTTTTTTTTTT CP_TOTE     TELAPSE       22.50 TCPU       22.37
 CYCLE   3  PSEUDO-ENERGY DERIVATIVE       -8.057910E+01  DELTA   -1.3068E+01
 TTTTTTTTTTTTTTTTTTTTTTTTTTTTTT CP_TOTE     TELAPSE       22.65 TCPU       22.52
 CYCLE   4  PSEUDO-ENERGY DERIVATIVE       -8.947260E+01  DELTA   -8.8935E+00
 TTTTTTTTTTTTTTTTTTTTTTTTTTTTTT CP_TOTE     TELAPSE       22.82 TCPU       22.69
 CYCLE   5  PSEUDO-ENERGY DERIVATIVE       -9.605350E+01  DELTA   -6.5809E+00
 TTTTTTTTTTTTTTTTTTTTTTTTTTTTTT CP_TOTE     TELAPSE       22.98 TCPU       22.84
 CYCLE   6  PSEUDO-ENERGY DERIVATIVE       -1.010623E+02  DELTA   -5.0088E+00
 TTTTTTTTTTTTTTTTTTTTTTTTTTTTTT CP_TOTE     TELAPSE       23.13 TCPU       23.00
 CYCLE   7  PSEUDO-ENERGY DERIVATIVE       -1.049101E+02  DELTA   -3.8479E+00
 TTTTTTTTTTTTTTTTTTTTTTTTTTTTTT CP_TOTE     TELAPSE       23.29 TCPU       23.15
 CYCLE   8  PSEUDO-ENERGY DERIVATIVE       -1.078738E+02  DELTA   -2.9636E+00
 TTTTTTTTTTTTTTTTTTTTTTTTTTTTTT CP_TOTE     TELAPSE       23.44 TCPU       23.30
 CYCLE   9  PSEUDO-ENERGY DERIVATIVE       -1.101569E+02  DELTA   -2.2831E+00
 TTTTTTTTTTTTTTTTTTTTTTTTTTTTTT CP_TOTE     TELAPSE       23.59 TCPU       23.46
 CYCLE  10  PSEUDO-ENERGY DERIVATIVE       -1.119151E+02  DELTA   -1.7582E+00
 TTTTTTTTTTTTTTTTTTTTTTTTTTTTTT CP_TOTE     TELAPSE       23.75 TCPU       23.61
 CYCLE  11  PSEUDO-ENERGY DERIVATIVE       -1.132685E+02  DELTA   -1.3534E+00
 TTTTTTTTTTTTTTTTTTTTTTTTTTTTTT CP_TOTE     TELAPSE       23.90 TCPU       23.77
 CYCLE  12  PSEUDO-ENERGY DERIVATIVE       -1.143100E+02  DELTA   -1.0415E+00
 TTTTTTTTTTTTTTTTTTTTTTTTTTTTTT CP_TOTE     TELAPSE       24.06 TCPU       23.92
 CYCLE  13  PSEUDO-ENERGY DERIVATIVE       -1.151114E+02  DELTA   -8.0140E-01
 TTTTTTTTTTTTTTTTTTTTTTTTTTTTTT CP_TOTE     TELAPSE       24.21 TCPU       24.07
 CYCLE  14  PSEUDO-ENERGY DERIVATIVE       -1.157281E+02  DELTA   -6.1673E-01
 TTTTTTTTTTTTTTTTTTTTTTTTTTTTTT CP_TOTE     TELAPSE       24.37 TCPU       24.23
 CYCLE  15  PSEUDO-ENERGY DERIVATIVE       -1.162028E+02  DELTA   -4.7473E-01
 TTTTTTTTTTTTTTTTTTTTTTTTTTTTTT CP_TOTE     TELAPSE       24.52 TCPU       24.38
 CYCLE  16  PSEUDO-ENERGY DERIVATIVE       -1.165684E+02  DELTA   -3.6555E-01
 TTTTTTTTTTTTTTTTTTTTTTTTTTTTTT CP_TOTE     TELAPSE       24.67 TCPU       24.53
 CYCLE  17  PSEUDO-ENERGY DERIVATIVE       -1.168500E+02  DELTA   -2.8159E-01
 TTTTTTTTTTTTTTTTTTTTTTTTTTTTTT CP_TOTE     TELAPSE       24.83 TCPU       24.69
 CYCLE  18  PSEUDO-ENERGY DERIVATIVE       -1.170670E+02  DELTA   -2.1700E-01
 TTTTTTTTTTTTTTTTTTTTTTTTTTTTTT CP_TOTE     TELAPSE       24.99 TCPU       24.84
 CYCLE  19  PSEUDO-ENERGY DERIVATIVE       -1.172343E+02  DELTA   -1.6731E-01
 TTTTTTTTTTTTTTTTTTTTTTTTTTTTTT CP_TOTE     TELAPSE       25.14 TCPU       25.00
 CYCLE  20  PSEUDO-ENERGY DERIVATIVE       -1.173633E+02  DELTA   -1.2905E-01
 TTTTTTTTTTTTTTTTTTTTTTTTTTTTTT CP_TOTE     TELAPSE       25.29 TCPU       25.15
 CYCLE  21  PSEUDO-ENERGY DERIVATIVE       -1.174629E+02  DELTA   -9.9589E-02
 TTTTTTTTTTTTTTTTTTTTTTTTTTTTTT CP_TOTE     TELAPSE       25.45 TCPU       25.30
 CYCLE  22  PSEUDO-ENERGY DERIVATIVE       -1.175398E+02  DELTA   -7.6884E-02
 TTTTTTTTTTTTTTTTTTTTTTTTTTTTTT CP_TOTE     TELAPSE       25.60 TCPU       25.46
 CYCLE  23  PSEUDO-ENERGY DERIVATIVE       -1.175992E+02  DELTA   -5.9380E-02
 TTTTTTTTTTTTTTTTTTTTTTTTTTTTTT CP_TOTE     TELAPSE       25.76 TCPU       25.61
 CYCLE  24  PSEUDO-ENERGY DERIVATIVE       -1.176451E+02  DELTA   -4.5879E-02
 TTTTTTTTTTTTTTTTTTTTTTTTTTTTTT CP_TOTE     TELAPSE       25.92 TCPU       25.77
 CYCLE  25  PSEUDO-ENERGY DERIVATIVE       -1.176805E+02  DELTA   -3.5461E-02
 TTTTTTTTTTTTTTTTTTTTTTTTTTTTTT CP_TOTE     TELAPSE       26.07 TCPU       25.92
 CYCLE  26  PSEUDO-ENERGY DERIVATIVE       -1.177079E+02  DELTA   -2.7417E-02
 TTTTTTTTTTTTTTTTTTTTTTTTTTTTTT CP_TOTE     TELAPSE       26.22 TCPU       26.07
 CYCLE  27  PSEUDO-ENERGY DERIVATIVE       -1.177291E+02  DELTA   -2.1205E-02
 TTTTTTTTTTTTTTTTTTTTTTTTTTTTTT CP_TOTE     TELAPSE       26.38 TCPU       26.23
 CYCLE  28  PSEUDO-ENERGY DERIVATIVE       -1.177456E+02  DELTA   -1.6405E-02
 TTTTTTTTTTTTTTTTTTTTTTTTTTTTTT CP_TOTE     TELAPSE       26.53 TCPU       26.38
 CYCLE  29  PSEUDO-ENERGY DERIVATIVE       -1.177582E+02  DELTA   -1.2695E-02
 TTTTTTTTTTTTTTTTTTTTTTTTTTTTTT CP_TOTE     TELAPSE       26.69 TCPU       26.54
 CYCLE  30  PSEUDO-ENERGY DERIVATIVE       -1.177681E+02  DELTA   -9.8262E-03
 TTTTTTTTTTTTTTTTTTTTTTTTTTTTTT CP_TOTE     TELAPSE       26.85 TCPU       26.70
 CYCLE  31  PSEUDO-ENERGY DERIVATIVE       -1.177757E+02  DELTA   -7.6075E-03
 TTTTTTTTTTTTTTTTTTTTTTTTTTTTTT CP_TOTE     TELAPSE       27.02 TCPU       26.86
 CYCLE  32  PSEUDO-ENERGY DERIVATIVE       -1.177816E+02  DELTA   -5.8909E-03
 TTTTTTTTTTTTTTTTTTTTTTTTTTTTTT CP_TOTE     TELAPSE       27.17 TCPU       27.01
 CYCLE  33  PSEUDO-ENERGY DERIVATIVE       -1.177861E+02  DELTA   -4.5626E-03
 TTTTTTTTTTTTTTTTTTTTTTTTTTTTTT CP_TOTE     TELAPSE       27.33 TCPU       27.17
 CYCLE  34  PSEUDO-ENERGY DERIVATIVE       -1.177897E+02  DELTA   -3.5343E-03
 TTTTTTTTTTTTTTTTTTTTTTTTTTTTTT CP_TOTE     TELAPSE       27.49 TCPU       27.32
 CYCLE  35  PSEUDO-ENERGY DERIVATIVE       -1.177924E+02  DELTA   -2.7383E-03
 TTTTTTTTTTTTTTTTTTTTTTTTTTTTTT CP_TOTE     TELAPSE       27.64 TCPU       27.48
 CYCLE  36  PSEUDO-ENERGY DERIVATIVE       -1.177945E+02  DELTA   -2.1218E-03
 TTTTTTTTTTTTTTTTTTTTTTTTTTTTTT CP_TOTE     TELAPSE       27.80 TCPU       27.63
 CYCLE  37  PSEUDO-ENERGY DERIVATIVE       -1.177962E+02  DELTA   -1.6443E-03
 TTTTTTTTTTTTTTTTTTTTTTTTTTTTTT CP_TOTE     TELAPSE       27.96 TCPU       27.79
 CYCLE  38  PSEUDO-ENERGY DERIVATIVE       -1.177974E+02  DELTA   -1.2744E-03
 TTTTTTTTTTTTTTTTTTTTTTTTTTTTTT CP_TOTE     TELAPSE       28.11 TCPU       27.95
 CYCLE  39  PSEUDO-ENERGY DERIVATIVE       -1.177984E+02  DELTA   -9.8787E-04
 TTTTTTTTTTTTTTTTTTTTTTTTTTTTTT CP2_SC      TELAPSE       28.16 TCPU       27.99

 *******************************************************************************

 ELECTRIC FIELD APPLIED ALONG CARTESIAN DIRECTIONS XY

 *******************************************************************************
 NEW GRID IN RECIPROCAL SPACE
 *******************************************************************************
 POINTS IN THE IBZ                 260 SHRINKING FACTORS               8  8  8
 *******************************************************************************
 *** K POINTS COORDINATES (OBLIQUE COORDINATES IN UNITS OF SHRINK FAC. )
   1-R(  0  0  0)   2-C(  1  0  0)   3-C(  0  1  0)   4-C(  7  7  7)
   5-C(  0  0  1)   6-C(  2  0  0)   7-C(  0  2  0)   8-C(  6  6  6)
   9-C(  0  0  2)  10-C(  3  0  0)  11-C(  0  3  0)  12-C(  5  5  5)
  13-C(  0  0  3)  14-R(  4  0  0)  15-R(  0  4  0)  16-R(  4  4  4)
  17-R(  0  0  4)  18-C(  1  1  0)  19-C(  0  1  1)  20-C(  1  0  1)
  21-C(  2  1  0)  22-C(  1  2  0)  23-C(  6  6  7)  24-C(  7  7  1)
  25-C(  0  2  1)  26-C(  1  0  2)  27-C(  1  7  7)  28-C(  2  0  1)
  29-C(  0  1  2)  30-C(  6  7  6)  31-C(  7  6  6)  32-C(  7  1  7)
  33-C(  3  1  0)  34-C(  1  3  0)  35-C(  5  5  6)  36-C(  7  7  2)
  37-C(  0  3  1)  38-C(  1  0  3)  39-C(  2  7  7)  40-C(  3  0  1)
  41-C(  0  1  3)  42-C(  5  6  5)  43-C(  6  5  5)  44-C(  7  2  7)
  45-C(  4  1  0)  46-C(  1  4  0)  47-C(  4  4  5)  48-C(  7  7  3)
  49-C(  0  4  1)  50-C(  1  0  4)  51-C(  3  7  7)  52-C(  4  0  1)
  53-C(  0  1  4)  54-C(  4  5  4)  55-C(  5  4  4)  56-C(  7  3  7)
  57-C(  5  1  0)  58-C(  1  5  0)  59-C(  3  3  4)  60-C(  7  7  4)
  61-C(  0  5  1)  62-C(  1  0  5)  63-C(  4  7  7)  64-C(  5  0  1)
  65-C(  0  1  5)  66-C(  3  4  3)  67-C(  4  3  3)  68-C(  7  4  7)
  69-C(  6  1  0)  70-C(  1  6  0)  71-C(  2  2  3)  72-C(  7  7  5)
  73-C(  0  6  1)  74-C(  1  0  6)  75-C(  5  7  7)  76-C(  6  0  1)
  77-C(  0  1  6)  78-C(  2  3  2)  79-C(  3  2  2)  80-C(  7  5  7)
  81-C(  7  1  0)  82-C(  1  1  2)  83-C(  0  7  1)  84-C(  1  0  7)
  85-C(  6  7  7)  86-C(  1  2  1)  87-C(  2  2  0)  88-C(  0  2  2)
  89-C(  2  0  2)  90-C(  3  2  0)  91-C(  2  3  0)  92-C(  5  5  7)
  93-C(  6  6  1)  94-C(  0  3  2)  95-C(  2  0  3)  96-C(  1  6  6)
  97-C(  3  0  2)  98-C(  0  2  3)  99-C(  5  7  5) 100-C(  7  5  5)
 101-C(  6  1  6) 102-C(  4  2  0) 103-C(  2  4  0) 104-C(  4  4  6)
 105-C(  6  6  2) 106-C(  0  4  2) 107-C(  2  0  4) 108-C(  2  6  6)
 109-C(  4  0  2) 110-C(  0  2  4) 111-C(  4  6  4) 112-C(  6  4  4)
 113-C(  6  2  6) 114-C(  5  2  0) 115-C(  2  5  0) 116-C(  3  3  5)
[...]

 CAPPA:IS1  8;IS2  8;IS3  8; K PTS MONK NET  29; SYMMOPS:K SPACE  48;G SPACE  48


 MATRIX SIZE: P(G)   17290, F(G)    3362, P(G) IRR     864, F(G) IRR     470
 MAX G-VECTOR INDEX FOR 1- AND 2-ELECTRON INTEGRALS 247

 INFORMATION **** GENBUF **** COULOMB BIPO BUFFER LENGTH (WORDS) =       79850
 TTTTTTTTTTTTTTTTTTTTTTTTTTTTTT INPUT       TELAPSE      497.62 TCPU      496.23

 THERE ARE NO SYMMETRY ALLOWED DIRECTIONS
 TTTTTTTTTTTTTTTTTTTTTTTTTTTTTT SYMM        TELAPSE      497.63 TCPU      496.23
 TTTTTTTTTTTTTTTTTTTTTTTTTTTTTT INT_SCREEN  TELAPSE      497.63 TCPU      496.23
 INFORMATION **** GENBUF **** COULOMB BIPO BUFFER LENGTH (WORDS) =       79850
 INFORMATION **** EXCBUF **** EXCH. BIPO BUFFER: WORDS USED =      102474
 TTTTTTTTTTTTTTTTTTTTTTTTTTTTTT MONIRR      TELAPSE      497.63 TCPU      496.24

  GAUSS70 FOR COULOMB   GAUSS70 FOR EXCHANGE
 **SHELL_ORTHODOX** SPACE FOR BIEL. INTEGRALS     1 BUFFERS
 TTTTTTTTTTTTTTTTTTTTTTTTTTTTTT SHLC        TELAPSE      498.05 TCPU      496.65
 TTTTTTTTTTTTTTTTTTTTTTTTTTTTTT MONMAD      TELAPSE      498.07 TCPU      496.67
 TTTTTTTTTTTTTTTTTTTTTTTTTTTTTT INT_CALC    TELAPSE      498.07 TCPU      496.67

 *******************************************************************************
 TEST11 - MGO BULK                                                               
 CRYSTAL - SCF - TYPE OF CALCULATION :  RESTRICTED CLOSED SHELL
 *******************************************************************************

 CAPPA:IS1  8;IS2  8;IS3  8; K PTS MONK NET  29; SYMMOPS:K SPACE  48;G SPACE  48

 TTTTTTTTTTTTTTTTTTTTTTTTTTTTTT SDIK        TELAPSE      498.07 TCPU      496.68

 AAAAAAAAAAAAAAAAAAAAAAAAAAAAAAAAAAAAAAAAAAAAAAAAAAAAAAAAAAAAAAAAAAAAAAAAAAAAAAA
         ATOMIC WAVEFUNCTION(S)


 NUCLEAR CHARGE 12.0  SYMMETRY SPECIES            S    P
 N. ELECTRONS   10.0  NUMBER OF PRIMITIVE GTOS   15    7
                      NUMBER OF CONTRACTED GTOS   3    2
                      NUMBER OF CLOSED SHELLS     2    1
                      OPEN SHELL OCCUPATION       0    0

  ZNUC SCFIT  TOTAL HF ENERGY   KINETIC ENERGY   VIRIAL THEOREM ACCURACY
  12.0   6   -1.988200719E+02  1.987325169E+02 -2.000440567E+00  1.3E-06

 NUCLEAR CHARGE  8.0  SYMMETRY SPECIES            S    P
 N. ELECTRONS   10.0  NUMBER OF PRIMITIVE GTOS   14    6
                      NUMBER OF CONTRACTED GTOS   3    2
                      NUMBER OF CLOSED SHELLS     2    1
                      OPEN SHELL OCCUPATION       0    0

  ZNUC SCFIT  TOTAL HF ENERGY   KINETIC ENERGY   VIRIAL THEOREM ACCURACY
   8.0  37   -7.429054355E+01  7.468454787E+01 -1.994724420E+00  4.5E-06

 AAAAAAAAAAAAAAAAAAAAAAAAAAAAAAAAAAAAAAAAAAAAAAAAAAAAAAAAAAAAAAAAAAAAAAAAAAAAAAA

 TTTTTTTTTTTTTTTTTTTTTTTTTTTTTT QGAM        TELAPSE      498.07 TCPU      496.68
 TTTTTTTTTTTTTTTTTTTTTTTTTTTTTT BIEL2       TELAPSE      498.07 TCPU      496.68
 TTTTTTTTTTTTTTTTTTTTTTTTTTTTTT TOTENY      TELAPSE      498.07 TCPU      496.68
 CYC   0 ETOT(AU) -2.750919138897E+02 DETOT -2.75E+02 tst  0.00E+00 PX  1.00E+00
 TTTTTTTTTTTTTTTTTTTTTTTTTTTTTT FDIK        TELAPSE      498.08 TCPU      496.68
 INSULATING STATE
 TOP OF VALENCE BANDS -    BAND     10; K    1; EIG -3.4527266E-01 AU
 BOTTOM OF VIRTUAL BANDS - BAND     11; K    1; EIG  3.7948795E-01 AU
 TTTTTTTTTTTTTTTTTTTTTTTTTTTTTT PDIG        TELAPSE      498.08 TCPU      496.68
 TTTTTTTTTTTTTTTTTTTTTTTTTTTTTT QGAM        TELAPSE      498.08 TCPU      496.68
 TTTTTTTTTTTTTTTTTTTTTTTTTTTTTT BIEL2       TELAPSE      498.08 TCPU      496.68
 TTTTTTTTTTTTTTTTTTTTTTTTTTTTTT TOTENY      TELAPSE      498.08 TCPU      496.68
 CYC   1 ETOT(AU) -2.746574695516E+02 DETOT  4.34E-01 tst  0.00E+00 PX  1.00E+00
 TTTTTTTTTTTTTTTTTTTTTTTTTTTTTT FDIK        TELAPSE      498.08 TCPU      496.69
 INSULATING STATE
 TOP OF VALENCE BANDS -    BAND     10; K    1; EIG -2.9113133E-01 AU
 BOTTOM OF VIRTUAL BANDS - BAND     11; K    1; EIG  4.2525606E-01 AU
 TTTTTTTTTTTTTTTTTTTTTTTTTTTTTT PDIG        TELAPSE      498.08 TCPU      496.69
 TTTTTTTTTTTTTTTTTTTTTTTTTTTTTT QGAM        TELAPSE      498.08 TCPU      496.69
 TTTTTTTTTTTTTTTTTTTTTTTTTTTTTT BIEL2       TELAPSE      498.09 TCPU      496.69
 TTTTTTTTTTTTTTTTTTTTTTTTTTTTTT TOTENY      TELAPSE      498.09 TCPU      496.69
 CYC   2 ETOT(AU) -2.746640324460E+02 DETOT -6.56E-03 tst  8.06E-04 PX  6.00E-02
 TTTTTTTTTTTTTTTTTTTTTTTTTTTTTT FDIK        TELAPSE      498.09 TCPU      496.69
 INSULATING STATE
 TOP OF VALENCE BANDS -    BAND     10; K    1; EIG -3.0867602E-01 AU
 BOTTOM OF VIRTUAL BANDS - BAND     11; K    1; EIG  4.1808673E-01 AU
 TTTTTTTTTTTTTTTTTTTTTTTTTTTTTT PDIG        TELAPSE      498.09 TCPU      496.69
 TTTTTTTTTTTTTTTTTTTTTTTTTTTTTT QGAM        TELAPSE      498.09 TCPU      496.69
 TTTTTTTTTTTTTTTTTTTTTTTTTTTTTT BIEL2       TELAPSE      498.09 TCPU      496.69
 TTTTTTTTTTTTTTTTTTTTTTTTTTTTTT TOTENY      TELAPSE      498.09 TCPU      496.69
 CYC   3 ETOT(AU) -2.746641861817E+02 DETOT -1.54E-04 tst  1.98E-05 PX  8.52E-03
 TTTTTTTTTTTTTTTTTTTTTTTTTTTTTT FDIK        TELAPSE      498.09 TCPU      496.69
 INSULATING STATE
 TOP OF VALENCE BANDS -    BAND     10; K    1; EIG -3.0907413E-01 AU
 BOTTOM OF VIRTUAL BANDS - BAND     11; K    1; EIG  4.1955914E-01 AU
 TTTTTTTTTTTTTTTTTTTTTTTTTTTTTT PDIG        TELAPSE      498.09 TCPU      496.70
 TTTTTTTTTTTTTTTTTTTTTTTTTTTTTT QGAM        TELAPSE      498.09 TCPU      496.70
 TTTTTTTTTTTTTTTTTTTTTTTTTTTTTT BIEL2       TELAPSE      498.09 TCPU      496.70
 TTTTTTTTTTTTTTTTTTTTTTTTTTTTTT TOTENY      TELAPSE      498.09 TCPU      496.70
 CYC   4 ETOT(AU) -2.746641917324E+02 DETOT -5.55E-06 tst  7.07E-07 PX  2.67E-03
 TTTTTTTTTTTTTTTTTTTTTTTTTTTTTT FDIK        TELAPSE      498.10 TCPU      496.70
 INSULATING STATE
 TOP OF VALENCE BANDS -    BAND     10; K    1; EIG -3.0984547E-01 AU
 BOTTOM OF VIRTUAL BANDS - BAND     11; K    1; EIG  4.1975334E-01 AU
 TTTTTTTTTTTTTTTTTTTTTTTTTTTTTT PDIG        TELAPSE      498.10 TCPU      496.70
 TTTTTTTTTTTTTTTTTTTTTTTTTTTTTT QGAM        TELAPSE      498.10 TCPU      496.70
 TTTTTTTTTTTTTTTTTTTTTTTTTTTTTT BIEL2       TELAPSE      498.10 TCPU      496.70
 TTTTTTTTTTTTTTTTTTTTTTTTTTTTTT TOTENY      TELAPSE      498.10 TCPU      496.70
 CYC   5 ETOT(AU) -2.746641919730E+02 DETOT -2.41E-07 tst  7.58E-08 PX  6.47E-04
 TTTTTTTTTTTTTTTTTTTTTTTTTTTTTT FDIK        TELAPSE      498.10 TCPU      496.70
 INSULATING STATE
 TOP OF VALENCE BANDS -    BAND     10; K    1; EIG -3.0997922E-01 AU
 BOTTOM OF VIRTUAL BANDS - BAND     11; K    1; EIG  4.1995443E-01 AU
 TTTTTTTTTTTTTTTTTTTTTTTTTTTTTT PDIG        TELAPSE      498.10 TCPU      496.70
 TTTTTTTTTTTTTTTTTTTTTTTTTTTTTT QGAM        TELAPSE      498.10 TCPU      496.70
 TTTTTTTTTTTTTTTTTTTTTTTTTTTTTT BIEL2       TELAPSE      498.10 TCPU      496.70
 TTTTTTTTTTTTTTTTTTTTTTTTTTTTTT TOTENY      TELAPSE      498.10 TCPU      496.70
 CYC   6 ETOT(AU) -2.746641919257E+02 DETOT  4.72E-08 tst  1.47E-08 PX  4.11E-04
 TTTTTTTTTTTTTTTTTTTTTTTTTTTTTT FDIK        TELAPSE      498.10 TCPU      496.71
 INSULATING STATE
 TOP OF VALENCE BANDS -    BAND     10; K    1; EIG -3.1003203E-01 AU
 BOTTOM OF VIRTUAL BANDS - BAND     11; K    1; EIG  4.2004284E-01 AU
 TTTTTTTTTTTTTTTTTTTTTTTTTTTTTT PDIG        TELAPSE      498.10 TCPU      496.71
 TTTTTTTTTTTTTTTTTTTTTTTTTTTTTT QGAM        TELAPSE      498.10 TCPU      496.71
 TTTTTTTTTTTTTTTTTTTTTTTTTTTTTT BIEL2       TELAPSE      498.11 TCPU      496.71
 +++ ENERGIES IN A.U. +++
 ::: TOTAL   ENERGY                               -2.7466419188883E+02
 ::: VIRIAL COEFFICIENT                            9.9998490718752E-01
 TTTTTTTTTTTTTTTTTTTTTTTTTTTTTT TOTENY      TELAPSE      498.11 TCPU      496.71
 CYC   7 ETOT(AU) -2.746641918888E+02 DETOT  3.69E-08 tst  3.21E-09 PX  4.11E-04

 == SCF ENDED - CONVERGENCE ON ENERGY      E(AU) -2.7466419188883E+02 CYCLES   7

 TOTAL ENERGY(HF)(AU)(   7) -2.7466419188883E+02 DE 3.7E-08 tst 3.2E-09 PX 4.1E-04

 *******************************************************************************
 *                             FORCE CALCULATION                               *
 *******************************************************************************

 INFORMATION **** EXCPOG **** EXCH. BIPO BUFFER LENGTH (WORDS) =      409896
 INFORMATION **** GENPOG **** BIPO BUFFER LENGTH (WORDS) =       26000
 TTTTTTTTTTTTTTTTTTTTTTTTTTTTTT SHELXG      TELAPSE      500.86 TCPU      499.45

 CARTESIAN FORCES IN HARTREE/BOHR (ANALYTICAL)
   ATOM                     X                   Y                   Z
   1  12            -1.922330569253E-15 -1.921607767804E-15 -1.937857502550E-15
   2   8             1.920884966356E-15  1.921535487659E-15  1.937857502550E-15

 RESULTANT FORCE    -1.445602896647E-18 -7.228014483210E-20  0.000000000000E+00

 THERE ARE NO SYMMETRY ALLOWED DIRECTIONS
 TTTTTTTTTTTTTTTTTTTTTTTTTTTTTT TOTGRA      TELAPSE      500.88 TCPU      499.48

 HHHHHHHHHHHHHHHHHHHHHHHHHHHHHHHHHHHHHHHHHHHHHHHHHHHHHHHHHHHHHHHHHHHHHHHHHHHHHHH
                   FORCE CONSTANT MATRIX - NUMERICAL ESTIMATE
 HHHHHHHHHHHHHHHHHHHHHHHHHHHHHHHHHHHHHHHHHHHHHHHHHHHHHHHHHHHHHHHHHHHHHHHHHHHHHHH
 MAX ABS(DGRAD): MAXIMUM ABSOLUTE GRADIENT DIFFERENCE WITH RESPECT TO
                 THE CENTRAL POINT
 DE:             ENERGY DIFFERENCE WITH RESPECT TO THE CENTRAL POINT
                 (DE IS EXPECTED TO BE POSITIVE FOR ALL DISPLACEMENTS)

   ATOM      MAX ABS(DGRAD)       TOTAL ENERGY (AU)  N.CYC      DE       SYM
    CENTRAL POINT             -2.746641918888E+02     7     0.0000E+00    48
    2 O  DX   4.8431E-04      -2.746641906716E+02     3     1.2173E-06     8
    2 O  DY                   GENERATED FROM A PREVIOUS LINE
    2 O  DZ                   GENERATED FROM A PREVIOUS LINE

 GCALCO - MAX INDICES DIRECT LATTICE VECTOR    14    14    14
 NO.OF VECTORS CREATED 6999 STARS  105 RMAX    59.53536 BOHR

 CAPPA:IS1  8;IS2  8;IS3  8; K PTS MONK NET  29; SYMMOPS:K SPACE  48;G SPACE  48


 MATRIX SIZE: P(G)   17290, F(G)    3362, P(G) IRR     864, F(G) IRR     470
 MAX G-VECTOR INDEX FOR 1- AND 2-ELECTRON INTEGRALS 247

 INFORMATION **** GENBUF **** COULOMB BIPO BUFFER LENGTH (WORDS) =       79850
 TTTTTTTTTTTTTTTTTTTTTTTTTTTTTT INPUT       TELAPSE      507.75 TCPU      506.32

 THERE ARE NO SYMMETRY ALLOWED DIRECTIONS
 TTTTTTTTTTTTTTTTTTTTTTTTTTTTTT SYMM        TELAPSE      507.75 TCPU      506.33
 TTTTTTTTTTTTTTTTTTTTTTTTTTTTTT INT_SCREEN  TELAPSE      507.75 TCPU      506.33

 ATOMIC BORN CHARGE TENSOR (UNITS OF e, ELECTRON CHARGE).
 DYNAMIC CHARGE = 1/3 * TRACE .

 ATOM   1 MG DYNAMIC CHARGE     1.851740

              1           2           3
   1     1.8517E+00  0.0000E+00  1.6049E-35
   2     1.6049E-35  1.8517E+00  0.0000E+00
   3     0.0000E+00  0.0000E+00  1.8517E+00

 ATOM   2 O  DYNAMIC CHARGE    -1.851740

              1           2           3
   1    -1.8517E+00  0.0000E+00 -1.6049E-35
   2    -1.6049E-35 -1.8517E+00  0.0000E+00
   3     0.0000E+00  0.0000E+00 -1.8517E+00

 +++ SYMMETRY ADAPTION OF VIBRATIONAL MODES +++

 SYMMETRY INFORMATION:
 K-LITTLE GROUP: CLASS TABLE, CHARACTER TABLE.
 IRREP-(DIMENSION, NO. IRREDUCIBLE SETS)
 [WARNINGS: (1) ONLY ACTIVE IRREPS ARE GENERATED AND LISTED.
            (2) ONLY RELEVANT CLASSES ARE CONSIDERED IN THE CHARACTER TABLE
            (3) SYMBOLS MAY NOT FULLY COINCIDE WITH THOSE FROM TEXT BOOKS.]

 (P, D, RP, RD, STAND FOR PAIRING, DOUBLING, REAL PAIRING AND REAL DOUBLING 
 OF THE IRREPS (SEE MANUAL))

 CLASS  | GROUP OPERATORS (SEE SYMMOPS KEYWORD)
 --------------------------------------------------------------------
 C2     |   2;   3;   4;
 C3     |   5;  11;   7;   9;   6;  12;  10;   8;
 C2'    |  13;  14;  17;  18;  23;  24;
 C4     |  15;  16;  19;  20;  21;  22;
 I      |  25;
 SGH    |  26;  27;  28;
 S6     |  29;  35;  31;  33;  30;  36;  34;  32;
 SGD    |  37;  38;  41;  42;  47;  48;
 S4     |  39;  40;  43;  44;  45;  46;

 IRREP/CLA      E     C2     C3    C2'     C4      I    SGH     S6    SGD     S4
 -------------------------------------------------------------------------------
  MULTIP |      1      3      8      6      6      1      3      8      6      6
 -------------------------------------------------------------------------------
    Fu   |   3.00  -1.00   0.00  -1.00   1.00  -3.00   1.00   0.00   1.00  -1.00
 

 Fu -(3,   2);

 BORN CHARGE VECTOR IN THE BASIS OF NORMAL MODES (UNITS OF e*M_E**(-1/2) ).
 e AND M_E ARE UNITS OF ELECTRON CHARGE AND MASS, RESPECTIVELY.

 MODE         X              Y              Z
   1    0.00000E+00    0.00000E+00    0.00000E+00
   2    0.00000E+00    0.00000E+00    0.00000E+00
   3    0.00000E+00    0.00000E+00    0.00000E+00
   4    0.00000E+00   -0.14001E-01    0.00000E+00
   5   -0.14001E-01   -0.12135E-36    0.00000E+00
   6   -0.12135E-36    0.00000E+00   -0.14001E-01

 HHHHHHHHHHHHHHHHHHHHHHHHHHHHHHHHHHHHHHHHHHHHHHHHHHHHHHHHHHHHHHHHHHHHHHHHHHHHHH
 VIBRATIONAL CONTRIBUTIONS TO THE STATIC DIELECTRIC TENSOR (OSCILLATOR
 STRENGTHS) ARE PURE NUMBERS. THEY ARE COMPUTED FOR EACH nth MODE AS:

   f_(n,ij) = 1 / (4 * pi * eps0) * 4 * pi / V * Z_(n,i) * Z_(n,j) / nu_n**2

 WHERE:
  1/(4*pi*eps0)  1 A.U. [M*L**3*T**(-4)*C**(-2)]
  V              CELL VOLUME (BOHR**3) [L**3]
  Z_(n,i)        ith COMPONENT OF BORN CHARGE VECTOR IN THE BASIS
                 OF NORMAL MODES ( e*M_E**(-1/2) ) [C*T*M**(-1/2)]
  nu_n           FREQUENCY (HARTREE) [T**(-1)]
  e, M_E         UNITS OF ELECTRON CHARGE AND MASS, RESPECTIVELY
  M, L, T, C     MASS, LENGTH, TIME, CURRENT, RESPECTIVELY

 HHHHHHHHHHHHHHHHHHHHHHHHHHHHHHHHHHHHHHHHHHHHHHHHHHHHHHHHHHHHHHHHHHHHHHHHHHHHHH

 MODE      CARTESIAN AXES SYSTEM

   4       0.00000    0.00000    0.00000
           0.00000    4.00666    0.00000
           0.00000    0.00000    0.00000

   5       4.00666    0.00000    0.00000
           0.00000    0.00000    0.00000
           0.00000    0.00000    0.00000

   6       0.00000    0.00000    0.00000
           0.00000    0.00000    0.00000
           0.00000    0.00000    4.00666

 SUM TENSOR OF THE VIBRATIONAL CONTRIBUTIONS TO THE STATIC DIELECTRIC     TENSOR

           4.00666    0.00000    0.00000
           0.00000    4.00666    0.00000
           0.00000    0.00000    4.00666

 INTEGRATED IR INTENSITIES, IN UNITS OF KM/MOL, ARE COMPUTED UNDER THE
 HYPOTHESIS OF ISOTROPIC RESPONSE (I.E. POWDER SAMPLE):

   INTENS_n = 1 / (4 * pi * eps0) * pi * N_AV / 3 / c**2 *
                             * d_n * ( Z_(n,x)**2 + Z_(n,y)**2 + Z_(n,z)**2 )
            = 0.17770712E+07 * d_n * ( Z_(n,x)**2 + Z_(n,y)**2 + Z_(n,z)**2 )

 WHERE:
  1/(4*pi*eps0)  1 A.U. [M*L**3*T**(-4)*C**(-2)]
  N_AV           AVOGADRO'S NUMBER [QM**(-1)]
  c              SPEED OF LIGHT [L*T**(-1)]
  d_n            DEGENERACY OF THE MODE
  Z_(n,x)        xth COMPONENT OF BORN CHARGE VECTOR IN THE BASIS
                 OF NORMAL MODES ( e*M_E**(-1/2) ) [C*T*M**(-1/2)]
  M,L,T,C,QM     MASS, LENGTH, TIME, CURRENT, QUANTITY OF MATTER, RESPECTIVELY

 HHHHHHHHHHHHHHHHHHHHHHHHHHHHHHHHHHHHHHHHHHHHHHHHHHHHHHHHHHHHHHHHHHHHHHHHHHHHHH
 EIGENVALUES (EIGV) OF THE MASS WEIGHTED HESSIAN MATRIX AND HARMONIC TRANSVERSE
 OPTICAL (TO) FREQUENCIES. IRREP LABELS REFER TO SYMMETRY REPRESENTATION
 ANALYSIS; A AND I INDICATE WHETHER THE MODE IS ACTIVE OR INACTIVE,
 RESPECTIVELY, FOR IR AND RAMAN; INTEGRATED IR INTENSITIES IN BRACKETS.

 CONVERSION FACTORS FOR FREQUENCIES:
      1 CM**(-1) =   0.2194746E+06 HARTREE
      1 THZ      =   0.2997925E-01 CM**(-1)

 HHHHHHHHHHHHHHHHHHHHHHHHHHHHHHHHHHHHHHHHHHHHHHHHHHHHHHHHHHHHHHHHHHHHHHHHHHHHHH

    MODES         EIGV          FREQUENCIES     IRREP  IR   INTENS    RAMAN
             (HARTREE**2)   (CM**-1)     (THZ)             (KM/MOL)
    1-   3    0.2379E-21      0.0000    0.0000  (Fu )   A (     0.00)   I
    4-   6    0.4884E-05    485.0276   14.5408  (Fu )   A (  1045.07)   I

 <RAMAN><RAMAN><RAMAN><RAMAN><RAMAN><RAMAN><RAMAN><RAMAN><RAMAN><RAMAN><RAMAN>
 <RAMAN><RAMAN><RAMAN><RAMAN><RAMAN><RAMAN><RAMAN><RAMAN><RAMAN><RAMAN><RAMAN>

 RAMAN INTENSITIES UNDER PLACZECK APPROXIMATION ARE COMPUTED AS:

  DIRECTIONAL (SINGLE CRYSTAL) :

     I_ij(n)= VOLUME*X(n,i,j)**2

  ISOTROPIC (POLYCRYSTALLINE POWDER) :

     G_0(n) = 1/3*(SUM_i X(n,i,i))**2
     G_1(n) = 1/2*SUM_i,j (X(n,i,j)+X(n,j,i))**2
     G_2(n) = 1/3*SUM_i,j (X(n,i,i)-X(n,j,j))**2

     I_par(n)  = VOLUME*( 15*G_0(n) + 6*(G_1(n) + G_2(n)) )
     I_perp(n) = VOLUME*9/2*( G_1(n) + G_2(n) )
     I_tot(n)  = I_par(n) + I_perp(n)

  WHERE X(n,i,j) IS THE i,j-th COMPONENT OF THE RAMAN TENSOR
  IN THE BASIS OF NORMAL MODE n

  ALL VALUES ARE NORMALIZED TO THE MOST INTENSE PEAK


  INTENSITIES  DO NOT TAKE INTO ACCOUNT TEMPERATURE OR
  FREQUENCY OF THE INCOMING LASER, YOU CAN SET THESE PARAMETERS
  BY INPUT USING THE RAMEXP KEYWORD


 REFERENCES TO BE QUOTED FOR RAMAN INTENSITIES:

 L.MASCHIO, B.KIRTMAN, M.RERAT, R.ORLANDO and R.DOVESI, JCP 139, 161101 (2013)
 L.MASCHIO, B.KIRTMAN, M.RERAT, R.ORLANDO and R.DOVESI, JCP 139, 161102 (2013)

  --
  POLYCRYSTALLINE ISOTROPIC INTENSITIES (ARBITRARY UNITS)

    MODES    FREQUENCIES           I_tot     I_par    I_perp
  ----------------------------------------------------------------

  --
  SINGLE CRYSTAL DIRECTIONAL INTENSITIES (ARBITRARY UNITS)

    MODES    FREQUENCIES          I_xx    I_xy    I_xz    I_yy    I_yz    I_zz
  ----------------------------------------------------------------------------

 <RAMAN><RAMAN><RAMAN><RAMAN><RAMAN><RAMAN><RAMAN><RAMAN><RAMAN><RAMAN><RAMAN>
 <RAMAN><RAMAN><RAMAN><RAMAN><RAMAN><RAMAN><RAMAN><RAMAN><RAMAN><RAMAN><RAMAN>


 NORMAL MODES NORMALIZED TO CLASSICAL AMPLITUDES

 FREQ(CM**-1)      0.00      0.00      0.00    485.03    485.03    485.03

 AT.   1 MG X     0.1582    0.0000    0.0000    0.0000   -0.0643    0.0000
            Y     0.0000    0.1582    0.0000   -0.0643    0.0000    0.0000
            Z     0.0000    0.0000    0.1582    0.0000    0.0000   -0.0643
 AT.   2 O  X     0.1582    0.0000    0.0000    0.0000    0.0965    0.0000
            Y     0.0000    0.1582    0.0000    0.0965    0.0000    0.0000
            Z     0.0000    0.0000    0.1582    0.0000    0.0000    0.0965

 *******************************************************************************

 VIBRATIONAL TEMPERATURES (K) [MODE NUMBER;IRREP]

 TO MODES
   697.8 [   4;Fu ]   697.8 [   5;Fu ]   697.8 [   6;Fu ]

 *******************************************************************************

 HARMONIC VIBRATIONAL CONTRIBUTIONS TO THERMODYNAMIC FUNCTIONS AT GIVEN
 TEMPERATURE AND PRESSURE:

 (EL = ELECTRONIC ENERGY
  E0 = ZERO-POINT ENERGY
  ET = THERMAL CONTRIBUTION TO THE VIBRATIONAL ENERGY
  PV = PRESSURE * VOLUME
  TS = TEMPERATURE * ENTROPY)

                          AU/CELL             EV/CELL                 KJ/MOL
 EL            :    -274.664191888834   -7473.992631738243     -721130.73417838
 E0            :       0.003314922384       0.090203623929           8.70332749


 *******************************************************************************

 THERMODYNAMIC FUNCTIONS WITH VIBRATIONAL CONTRIBUTIONS

 AT (T =  298.15 K, P =   0.10132500E+00 MPA):

                          AU/CELL             EV/CELL                 KJ/MOL
 ET            :       0.000706255370       0.019218185645           1.85427321
 PV            :       0.000000433553       0.000011797570           0.00113829
 TS            :       0.000992983862       0.027020464576           2.60707876
 ET+PV-TS      :      -0.000286294939      -0.007790481361          -0.75166726
 EL+E0+ET+PV-TS:    -274.661163261390   -7473.910218595674     -721122.78251815

 OTHER THERMODYNAMIC FUNCTIONS:

                      mHARTREE/(CELL*K)     mEV/(CELL*K)              J/(MOL*K)
 ENTROPY       :       0.003330484192       0.090627082262           8.74418501
 HEAT CAPACITY :       0.006134983545       0.166941389390          16.10739703

 *******************************************************************************
 TTTTTTTTTTTTTTTTTTTTTTTTTTTTTT END         TELAPSE      507.75 TCPU      506.33
 EEEEEEEEEE TERMINATION  DATE 28 03 2019 TIME 00:22:04.9
