/home0/develop/SVN_PUB17/bin/Linux-ifort_openmpi_i64_clut/std/Pcrystal
/data/develop/alessandro/tmp_p3962
script started on node13
TEST39 - ZNGEP2 : LDA : BULK
CRYSTAL
0 0 0
122
5.467 10.715
3
 215  0.2582     0.25       0.12500000
 230  0.00000000 0.00000000 0.00000000
 232 0.00000000 0.00000000 0.50000000
END
230 6
INPUT
20 1 3 2 0 0 0
   24.88705    -3.91648   -1
    2.79159     3.43082   -2
    8.32676   244.31634    0
    7.09651  -199.42711    0
   75.70603     4.11473   -2
   16.07627   118.29936    0
0 1 4 8. 1
   113.5     -0.004280    -0.007429
     8.308   -0.820232    -0.432605
     6.332    0.425006     0.723451
     2.146    1.198077     0.727217
0 1 1 2. 1
     0.8116   1.0          1.0
0 1 2 0. 1
     2.906   -0.082356    -0.023001
     0.1623   1.021574     1.002824
0 3 4 10. 1
    65.99     0.027653
    19.81     0.158794
     6.945    0.420971
     2.543    0.585277
0 3 1 0. 1
     0.9165   1.0
0 3 1 0. 1
     0.3264   1.0
232 2
INPUT
4 1 2 2 2 0 0
 0.82751  -1.26859   -1
12.24839   6.77027   -2
 2.41291  27.21907    0
15.55556   8.31253   -2
 1.82031  15.53292    0
 3.06970   1.62360   -2
 0.80525   3.20660    0
0 1 3 4.0 1.0
 1.834 0.49386 0.006414
 1.529 -0.857354 -0.086052
 0.3594 0.41083 0.383232
0 1 1 0.0 1
 0.1470 0.800378 0.698185
215  2
INPUT
5  1 2 2 0 0 0
 3.18945   -3.16361 -1
11.79328    6.20760 -2
 2.95330   29.40024  0
 4.96368    3.24084 -2
 2.31865   13.10778  0
0 1  2  5.  1.
 1.459 -.34091 -.09378
 0.6549 0.21535 0.29205
0 1 1 0.0 1
 0.2256 0.79578 0.58658
99  0
END
DFT
EXCHANGE
LDA
CORRELAT
PZ
BASIS
3
END
SHRINK
6 12 
LEVSHIFT
15 1
FMIXING
40
TOLDEE
7
MAXCYCLE
100
END
Fri May  5 12:22:43 CEST 2017
 PROCESS            0  OF            8  WORKING
 PROCESS            3  OF            8  WORKING
 PROCESS            5  OF            8  WORKING
 PROCESS            2  OF            8  WORKING
 PROCESS            6  OF            8  WORKING

         
 *******************************************************************************
 *                                                                             *
 *                               CRYSTAL17                                     *
 *                      public : 1.0.1 - Feb 1st, 2017                         *
 *                       HTTP://WWW.CRYSTAL.UNITO.IT                           *
 *                                                                             *
 *                              MAIN AUTHORS                                   *
 *                                                                             *
 *  R. DOVESI(1,11), V.R. SAUNDERS(2), C. ROETTI(1,11), R. ORLANDO(1,11),      *
 *  C.M. ZICOVICH-WILSON(1,3), F. PASCALE(4), B. CIVALLERI(1,11),              *
 *  K. DOLL(5), N.M. HARRISON(2,6), I.J. BUSH(7), Ph. D'ARCO(8),               *
 *  M. LLUNELL(9), M. CAUSA'(10), Y. NOEL(8), L. MASCHIO(1,11), A. ERBA(1,11)  *
 *  M. RE'RAT(14), S. CASASSA(1,11)                                            *
 *                                                                             *
 *        CONTRIBUTIONS TO THE CODE HAVE ALSO BEEN GIVEN BY                    *
 *                                                                             *
 *  M. FERRABONE(1,11), M. DE LA PIERRE(1,11), M. FERRERO(1,11),               *
 *  J. BAIMA(1,11), E. ALBANESE(1,11), M.F. PEINTINGER(12), R. BAST(13),       *
 *  B. KIRTMAN(15), V. LACIVITA(1,11), R. DEMICHELIS(1,16)                     *
 *  G. BRANDEBURG(17), S. SALUSTRO(1,11), G. SANSONE(1,11)                     *
 *  M.T. RUGGIERO(18)                                                          *
 *                                                                             *
 * (1) THEORETICAL CHEMISTRY GROUP - UNIVERSITA' DI TORINO - TORINO (ITALY)    *

 * (2) COMPUTATIONAL SCIENCE & ENGINEERING DEPARTMENT - STFC DARESBURY (UK)    *
 * (3) UNIVERSIDAD AUTONOMA DEL ESTADO DE MORELOS - CUERNAVACA (MEXICO)        *
 * (4) UNIVERSITE' DE LORRAINE - NANCY (FRANCE)                                *
 * (5) UNIVERSITAET STUTTGART- STUTTGART (GERMANY)                             *
 * (6) IMPERIAL COLLEGE - LONDON (UK)                                          *
 * (7) OXFORD E-RESEARCH CENTRE - OXFORD (UK)                                  *
 * (8) UPMC - SORBONNE UNIVERSITES - PARIS (FRANCE)                            *
 * (9) UNIVERSIDAD DE BARCELONA - BARCELONA (SPAIN)                            *
 *(10) UNIVERSITA' DI NAPOLI "FEDERICO II" - NAPOLI (ITALY)                    *
 *(11) NIS - NANOSTRUCTURED INTERFACES AND SURFACES - TORINO (ITALY)           *
 *(12) MPI FUER CHEMISCHE ENERGIEKONVERSION - MUELHEIM AN DER RUHR (GERMANY)   *
 *(13) UNIVERSITY OF TROMSO - TROMSO (NORWAY)                                  *
 *(14) UNIVERSITE' DE PAU ET DES PAYS DE L'ADOUR - PAU (FRANCE)                *
 *(15) UNIVERSITY OF CALIFORNIA SANTA BARBARA - SANTA BARBARA (USA)            *
 *(16) CURTIN UNIVERSITY - PERTH (AUSTRALIA)                                   *
 *(17) UNIVERSITY COLLEGE LONDON - LONDON (UK)                                 *
 *(18) CAMBRIDGE UNIVERSITY - CAMBRIDGE (UK)                                   *
 *                                                                             *
 *******************************************************************************
 PROCESS            4  OF            8  WORKING
 EEEEEEEEEE STARTING  DATE 05 05 2017 TIME 12:22:44.7
 TEST39 - ZNGEP2 : LDA : BULK                                                    
 PROCESS            7  OF            8  WORKING
 PROCESS            1  OF            8  WORKING

 CRYSTAL CALCULATION
 (INPUT ACCORDING TO THE INTERNATIONAL TABLES FOR X-RAY CRYSTALLOGRAPHY)
 CRYSTAL FAMILY                       :  TETRAGONAL  
 CRYSTAL CLASS  (GROTH - 1921)        :  TETRAGONAL SCALENOHEDRAL             

 SPACE GROUP (NONCENTROSYMMETRIC)     :  I -4 2 D        

 LATTICE PARAMETERS  (ANGSTROMS AND DEGREES) - CONVENTIONAL CELL
        A           B           C        ALPHA        BETA       GAMMA
     5.46700     5.46700    10.71500    90.00000    90.00000    90.00000


 NUMBER OF IRREDUCIBLE ATOMS IN THE CONVENTIONAL CELL:    3

 INPUT COORDINATES

 ATOM AT. N.              COORDINATES
   1 215     2.582000000000E-01  2.500000000000E-01  1.250000000000E-01
   2 230     0.000000000000E+00  0.000000000000E+00  0.000000000000E+00
   3 232     0.000000000000E+00  0.000000000000E+00  5.000000000000E-01

 *******************************************************************************

 << INFORMATION >>: FROM NOW ON, ALL COORDINATES REFER TO THE PRIMITIVE CELL

 *******************************************************************************

 LATTICE PARAMETERS  (ANGSTROMS AND DEGREES) - PRIMITIVE CELL
       A          B          C        ALPHA      BETA     GAMMA        VOLUME
    6.60658    6.60658    6.60658   131.11820 131.11820  71.62535    160.125437

 COORDINATES OF THE EQUIVALENT ATOMS (FRACTIONAL UNITS)

 N. ATOM EQUIV AT. N.          X                  Y                  Z

   1   1   1  215 P     3.75000000000E-01  3.83200000000E-01 -4.91800000000E-01
   2   1   2  215 P    -1.25000000000E-01 -1.33200000000E-01  4.91800000000E-01
   3   1   3  215 P     1.33200000000E-01 -3.75000000000E-01  8.20000000000E-03
   4   1   4  215 P    -3.83200000000E-01  1.25000000000E-01 -8.20000000000E-03

   5   2   1  230 ZN    0.00000000000E+00  0.00000000000E+00  0.00000000000E+00
   6   2   2  230 ZN   -2.50000000000E-01  2.50000000000E-01 -5.00000000000E-01

   7   3   1  232 GE   -5.00000000000E-01 -5.00000000000E-01  0.00000000000E+00
   8   3   2  232 GE    2.50000000000E-01 -2.50000000000E-01 -5.00000000000E-01

 NUMBER OF SYMMETRY OPERATORS         :    8
 *******************************************************************************
 * GEOMETRY EDITING - INPUT COORDINATES ARE GIVEN IN ANGSTROM         
 *******************************************************************************

 GEOMETRY NOW FULLY CONSISTENT WITH THE GROUP

 GCALCO - MAX INDICES DIRECT LATTICE VECTOR    13    13    17
 NO.OF VECTORS CREATED 6999 STARS  471 RMAX   121.92896 BOHR

 GEOMETRY FOR WAVE FUNCTION - DIMENSIONALITY OF THE SYSTEM    3
 (NON PERIODIC DIRECTION: LATTICE PARAMETER FORMALLY SET TO 500)
 *******************************************************************************
 LATTICE PARAMETERS (ANGSTROMS AND DEGREES) - BOHR = 0.5291772083 ANGSTROM
 PRIMITIVE CELL - CENTRING CODE 6/0 VOLUME=   160.125437 - DENSITY  4.144 g/cm^3
         A              B              C           ALPHA      BETA       GAMMA 
     6.60657633     6.60657633     6.60657633   131.118201 131.118201  71.625349
 *******************************************************************************
 ATOMS IN THE ASYMMETRIC UNIT    3 - ATOMS IN THE UNIT CELL:    8
     ATOM                 X/A                 Y/B                 Z/C    
 *******************************************************************************
      1 T 215 P     3.750000000000E-01  3.832000000000E-01 -4.918000000000E-01
      2 F 215 P    -1.250000000000E-01 -1.332000000000E-01  4.918000000000E-01
      3 F 215 P     1.332000000000E-01 -3.750000000000E-01  8.200000000000E-03
      4 F 215 P    -3.832000000000E-01  1.250000000000E-01 -8.200000000000E-03
      5 T 230 ZN    0.000000000000E+00  0.000000000000E+00  0.000000000000E+00
      6 F 230 ZN   -2.500000000000E-01  2.500000000000E-01 -5.000000000000E-01
      7 T 232 GE   -5.000000000000E-01 -5.000000000000E-01 -2.220446049250E-16
      8 F 232 GE    2.500000000000E-01 -2.500000000000E-01 -5.000000000000E-01

 TRANSFORMATION MATRIX PRIMITIVE-CRYSTALLOGRAPHIC CELL
  0.0000  1.0000  1.0000  1.0000  0.0000  1.0000  1.0000  1.0000  0.0000

 *******************************************************************************
 CRYSTALLOGRAPHIC CELL (VOLUME=        320.25087363)
         A              B              C           ALPHA      BETA       GAMMA 
     5.46700000     5.46700000    10.71500000    90.000000  90.000000  90.000000

 COORDINATES IN THE CRYSTALLOGRAPHIC CELL
     ATOM                 X/A                 Y/B                 Z/C    
 *******************************************************************************
      1 T 215 P     2.582000000000E-01  2.500000000000E-01  1.250000000000E-01
      2 F 215 P    -2.582000000000E-01 -2.500000000000E-01  1.250000000000E-01
      3 F 215 P    -2.500000000000E-01  2.582000000000E-01 -1.250000000000E-01
      4 F 215 P     2.500000000000E-01 -2.582000000000E-01 -1.250000000000E-01
      5 T 230 ZN    0.000000000000E+00  0.000000000000E+00  0.000000000000E+00
      6 F 230 ZN   -1.289565876923E-16 -5.000000000000E-01  2.500000000000E-01
      7 T 232 GE    5.000000000000E-01  5.000000000000E-01  2.220446049250E-16
      8 F 232 GE   -5.000000000000E-01 -1.289565876923E-16  2.500000000000E-01

 T = ATOM BELONGING TO THE ASYMMETRIC UNIT

 ****    8 SYMMOPS - TRANSLATORS IN FRACTIONAL UNITS
 **** MATRICES AND TRANSLATORS IN THE CRYSTALLOGRAPHIC REFERENCE FRAME
   V INV                    ROTATION MATRICES                   TRANSLATORS
   1   1  1.00  0.00  0.00  0.00  1.00  0.00  0.00  0.00  1.00  0.00  0.00  0.00
   2   2  0.00  1.00 -1.00  1.00  0.00 -1.00  0.00  0.00 -1.00  0.00  0.00  0.00
   3   3 -1.00  0.00  0.00 -1.00  0.00  1.00 -1.00  1.00  0.00  0.75  0.25  0.50
   4   4  0.00 -1.00  1.00  0.00 -1.00  0.00  1.00 -1.00  0.00  0.75  0.25  0.50
   5   5  0.00  1.00  0.00  1.00  0.00  0.00  0.00  0.00  1.00  0.75  0.25  0.50
   6   6  1.00  0.00 -1.00  0.00  1.00 -1.00  0.00  0.00 -1.00  0.75  0.25  0.50
   7   8 -1.00  0.00  1.00 -1.00  0.00  0.00 -1.00  1.00  0.00  0.00  0.00  0.00
   8   7  0.00 -1.00  0.00  0.00 -1.00  1.00  1.00 -1.00  0.00  0.00  0.00  0.00

 DIRECT LATTICE VECTORS CARTESIAN COMPONENTS (ANGSTROM)
          X                    Y                    Z
  -0.273350000000E+01   0.273350000000E+01   0.535750000000E+01
   0.273350000000E+01  -0.273350000000E+01   0.535750000000E+01
   0.273350000000E+01   0.273350000000E+01  -0.535750000000E+01


 CARTESIAN COORDINATES - PRIMITIVE CELL
 *******************************************************************************
 *      ATOM          X(ANGSTROM)         Y(ANGSTROM)         Z(ANGSTROM)
 *******************************************************************************
    1   215 P     1.411579400000E+00  1.366750000000E+00  1.339375000000E+00
    2   215 P    -1.411579400000E+00 -1.366750000000E+00  1.339375000000E+00
    3   215 P    -1.366750000000E+00  1.411579400000E+00 -1.339375000000E+00
    4   215 P     1.366750000000E+00 -1.411579400000E+00 -1.339375000000E+00
    5   230 ZN    0.000000000000E+00  0.000000000000E+00  0.000000000000E+00
    6   230 ZN   -7.050056649138E-16  2.733500000000E+00 -8.036250000000E+00
    7   232 GE   -2.733500000000E+00 -2.733500000000E+00  1.071500000000E+01
    8   232 GE    2.733500000000E+00 -7.050056649138E-16 -8.036250000000E+00

 *******************************************************************************
 *** PSEUDOPOTENTIAL INFORMATION ***
 *******************************************************************************

 ATOMIC NUMBER  30, NUCLEAR CHARGE 20.000, GIVEN IN INPUT       PSEUDOPOTENTIAL
   TYPE       EXPONENT      COEFF.    N      EXPONENT      COEFF.    N
  W0 TMS    24.8870500   -3.9164800  -1
  P0 TMS     2.7915900    3.4308200  -2     8.3267600  244.3163400   0
             7.0965100 -199.4271100   0
  P1 TMS    75.7060300    4.1147300  -2    16.0762700  118.2993600   0

 ATOMIC NUMBER  32, NUCLEAR CHARGE  4.000, GIVEN IN INPUT       PSEUDOPOTENTIAL
   TYPE       EXPONENT      COEFF.    N      EXPONENT      COEFF.    N
  W0 TMS     0.8275100   -1.2685900  -1
  P0 TMS    12.2483900    6.7702700  -2     2.4129100   27.2190700   0
  P1 TMS    15.5555600    8.3125300  -2     1.8203100   15.5329200   0
  P2 TMS     3.0697000    1.6236000  -2     0.8052500    3.2066000   0

 ATOMIC NUMBER  15, NUCLEAR CHARGE  5.000, GIVEN IN INPUT       PSEUDOPOTENTIAL
   TYPE       EXPONENT      COEFF.    N      EXPONENT      COEFF.    N
  W0 TMS     3.1894500   -3.1636100  -1
  P0 TMS    11.7932800    6.2076000  -2     2.9533000   29.4002400   0
  P1 TMS     4.9636800    3.2408400  -2     2.3186500   13.1077800   0

 *******************************************************************************
 LOCAL ATOMIC FUNCTIONS BASIS SET
 *******************************************************************************
   ATOM   X(AU)   Y(AU)   Z(AU)  N. TYPE  EXPONENT  S COEF   P COEF   D/F/G COEF
 *******************************************************************************
   1 P    2.667   2.583   2.531
                           1-     4 SP 
                                         1.459E+00-3.409E-01-9.378E-02 0.000E+00
                                         6.549E-01 2.154E-01 2.920E-01 0.000E+00
                           5-     8 SP 
                                         2.256E-01 7.958E-01 5.866E-01 0.000E+00
   2 P   -2.667  -2.583   2.531
   3 P   -2.583   2.667  -2.531
   4 P    2.583  -2.667  -2.531
   5 ZN   0.000   0.000   0.000
                          33-    36 SP 
                                         1.135E+02-4.280E-03-7.429E-03 0.000E+00
                                         8.308E+00-8.202E-01-4.326E-01 0.000E+00
                                         6.332E+00 4.250E-01 7.235E-01 0.000E+00
                                         2.146E+00 1.198E+00 7.272E-01 0.000E+00
                          37-    40 SP 
                                         8.116E-01 1.000E+00 1.000E+00 0.000E+00
                          41-    44 SP 
                                         2.906E+00-8.236E-02-2.300E-02 0.000E+00
                                         1.623E-01 1.022E+00 1.003E+00 0.000E+00
                          45-    49 D  
                                         6.599E+01 0.000E+00 0.000E+00 2.765E-02
                                         1.981E+01 0.000E+00 0.000E+00 1.588E-01
                                         6.945E+00 0.000E+00 0.000E+00 4.210E-01
                                         2.543E+00 0.000E+00 0.000E+00 5.853E-01
                          50-    54 D  
                                         9.165E-01 0.000E+00 0.000E+00 1.000E+00
                          55-    59 D  
                                         3.264E-01 0.000E+00 0.000E+00 1.000E+00
   6 ZN   0.000   5.166 -15.186
   7 GE  -5.166  -5.166  20.248
                          87-    90 SP 
                                         1.834E+00 4.939E-01 6.414E-03 0.000E+00
                                         1.529E+00-8.574E-01-8.605E-02 0.000E+00
                                         3.594E-01 4.108E-01 3.832E-01 0.000E+00
                          91-    94 SP 
                                         1.470E-01 8.004E-01 6.982E-01 0.000E+00
   8 GE   5.166   0.000 -15.186
 INFORMATION **** SET_MPP **** PCRYSTAL CALCULATION
 INFORMATION **** READM2 **** NEW DEFAULT: FOCK/KS MATRIX MIXING SET TO 30 %
 INFORMATION **** READM2 **** NEW DEFAULT: FULL DIRECT SCF MODE
 INFORMATION **** READM2 **** NEW DEFAULT: COULOMB BIPOLAR BUFFER SET TO 32 Mb
 INFORMATION **** READM2 **** NEW DEFAULT: EXCHANGE BIPOLAR BUFFER SET TO 32 Mb

 *******************************************************************************
 NEW DEFAULT: DFT INTEGRATION GRID INCREASED TO XLGRID
 NEW DEFAULT: DIIS ACCELERATOR ACTIVE
 USE KEYWORD NODIIS TO TURN IT OFF
 *******************************************************************************

 WARNING **** RDDFTP **** PZ FUNCTIONAL MAY GIVE PROBLEMS IF OPTIMIZING GEOMETRY
 INFORMATION **** LEVSHIFT **** LEVEL SHIFTER ACTIVE
 INFORMATION **** TOLDEE **** SCF TOL ON TOTAL ENERGY SET TO           7
 INFORMATION **** MAXCYCLE **** MAX NUMBER OF SCF CYCLES SET TO         100
 INFORMATION **** READM2 **** LEVSHIFT DISABLED BECAUSE NOT COMPATIBLE WITH DIIS
 INFORMATION **** READM2 **** TO MAKE LEVSHIFT EFFECTIVE YOU MUST SET NODIIS
 *******************************************************************************
 N. OF ATOMS PER CELL         8  COULOMB OVERLAP TOL         (T1) 10**   -6
 NUMBER OF SHELLS            24  COULOMB PENETRATION TOL     (T2) 10**   -6
 NUMBER OF AO               102  EXCHANGE OVERLAP TOL        (T3) 10**   20
 N. OF ELECTRONS PER CELL    68  EXCHANGE PSEUDO OVP (F(G))  (T4) 10**   20
 CORE ELECTRONS PER CELL      0  EXCHANGE PSEUDO OVP (P(G))  (T5) 10**   20
 N. OF SYMMETRY OPERATORS     8  POLE ORDER IN MONO ZONE                  4
 *******************************************************************************
 TYPE OF CALCULATION :  RESTRICTED CLOSED SHELL
 KOHN-SHAM HAMILTONIAN

 (EXCHANGE)[CORRELATION] FUNCTIONAL:(DIRAC-SLATER LDA)[PERDEW-ZUNGER]

 CORE  PSEUDO POTENTIAL         TOL. ON PSEUDO              (TP) 10**- 6

 CAPPA:IS1  6;IS2  6;IS3  6; K PTS MONK NET  30; SYMMOPS:K SPACE  16;G SPACE   8

 *******************************************************************************
 MAX NUMBER OF SCF CYCLES     100  CONVERGENCE ON DELTAP        10**-17
 WEIGHT OF F(I) IN F(I+1)      40% CONVERGENCE ON ENERGY        10**- 7
 SHRINK. FACT.(MONKH.)    6  6  6  NUMBER OF K POINTS IN THE IBZ     30
 SHRINKING FACTOR(GILAT NET)   12  NUMBER OF K POINTS(GILAT NET)    163
 *******************************************************************************
 *** K POINTS COORDINATES (OBLIQUE COORDINATES IN UNITS OF IS =  6)
   1-R(  0  0  0)   2-C(  1  0  0)   3-C(  2  0  0)   4-R(  3  0  0)
   5-C(  1  1  0)   6-C(  2  1  0)   7-C(  3  1  0)   8-C(  4  1  0)
   9-C(  5  1  0)  10-C(  2  2  0)  11-C(  3  2  0)  12-C(  4  2  0)
  13-R(  3  3  0)  14-C(  1  1  1)  15-C(  2  1  1)  16-C(  5  1  1)
  17-C(  2  2  1)  18-C(  4  2  1)  19-C(  5  2  1)  20-C(  3  3  1)
  21-C(  4  3  1)  22-C(  5  3  1)  23-C(  4  4  1)  24-C(  5  4  1)
  25-C(  5  5  1)  26-C(  4  2  2)  27-C(  3  3  2)  28-C(  4  3  2)
  29-C(  4  4  2)  30-R(  3  3  3)

 DIRECT LATTICE VECTORS COMPON. (A.U.)     RECIP. LATTICE VECTORS COMPON. (A.U.) 
        X            Y            Z              X            Y            Z
   -5.1655664    5.1655664   10.1242078      0.0000000    0.6081797    0.3103050
    5.1655664   -5.1655664   10.1242078      0.6081797    0.0000000    0.3103050
    5.1655664    5.1655664  -10.1242078      0.6081797    0.6081797    0.0000000

 DISK SPACE FOR EIGENVECTORS (FTN 10)      582624 REALS

 SYMMETRY ADAPTION OF THE BLOCH FUNCTIONS ENABLED
 TTTTTTTTTTTTTTTTTTTTTTTTTTTTTT gordsh1     TELAPSE        1.04 TCPU        0.01

 MATRIX SIZE: P(G)   28618, F(G)   14488, P(G) IRR    2444, F(G) IRR    2444
 MAX G-VECTOR INDEX FOR 1- AND 2-ELECTRON INTEGRALS 393

 TTTTTTTTTTTTTTTTTTTTTTTTTTTTTT INPUT       TELAPSE        1.04 TCPU        0.02

 NEIGHBORS OF THE NON-EQUIVALENT ATOMS

 N = NUMBER OF NEIGHBORS AT DISTANCE R
    ATOM  N     R/ANG      R/AU   NEIGHBORS (ATOM LABELS AND CELL INDICES)
   1 P    2     2.3258     4.3951    7 GE   0 0 2    8 GE   1 1 0
   1 P    2     2.3779     4.4936    5 ZN   0 0 0    6 ZN   1 1 0
   1 P    4     3.7956     7.1727    3 P    0 1 1    3 P    0 1 0    4 P    1 1 1
                                     4 P    1 0 1
   1 P    2     3.8029     7.1864    2 P    0 1 1    2 P    1 1 2
   1 P    4     3.8596     7.2937    3 P    0 0 0    3 P    1 1 1    4 P    1 0 0
                                     4 P    0 0 0
   1 P    2     3.9297     7.4260    2 P    0 0 0    2 P    1 0 1

   5 ZN   4     2.3779     4.4936    1 P    0 0 0    2 P    0 0 0    3 P    0 0 0
                                     4 P    0 0 0
   5 ZN   4     3.8272     7.2324    6 ZN   0 1 0    6 ZN   0 0-1    6 ZN   1 1 0
                                     6 ZN   0 1-1
   5 ZN   4     3.8272     7.2324    8 GE   1 0 0    8 GE   0 0-1    8 GE   1 0-1
                                     8 GE   1 1 0
   5 ZN   4     3.8658     7.3052    7 GE  -1-1 0    7 GE  -1 0 1    7 GE   0-1 1
                                     7 GE   0 0 2
   5 ZN   4     4.4453     8.4004    1 P   -1-1-1    2 P    0 0 1    3 P    0 1 0
                                     4 P    1 0 0
   5 ZN   4     4.4842     8.4740    1 P    0-1-1    2 P    0 1 1    3 P   -1 0-1
                                     4 P    1 0 1

   7 GE   4     2.3258     4.3951    1 P    0 0-2    2 P    1 1 0    3 P    0 1-1
                                     4 P    1 0-1
   7 GE   4     3.8272     7.2324    6 ZN   1 1-1    6 ZN   0 1-2    6 ZN   1 2-1
                                     6 ZN   1 1-2
   7 GE   4     3.8272     7.2324    8 GE   1 1-1    8 GE   1 0-2    8 GE   2 1-1
                                     8 GE   1 1-2
   7 GE   4     3.8658     7.3052    5 ZN   1 1 0    5 ZN   1 0-1    5 ZN   0 1-1
                                     5 ZN   0 0-2
   7 GE   4     4.4728     8.4524    1 P    0 0-1    2 P    0 0-1    3 P    1 1-1
                                     4 P    1 1-1
   7 GE   4     4.5115     8.5255    1 P    1 0-1    2 P    0 1-1    3 P    0 0-2
                                     4 P    1 1 0


 SYMMETRY ALLOWED INTERNAL DEGREE(S) OF FREEDOM:   1
 TTTTTTTTTTTTTTTTTTTTTTTTTTTTTT SYMM        TELAPSE        1.04 TCPU        0.02
 TTTTTTTTTTTTTTTTTTTTTTTTTTTTTT INT_SCREEN  TELAPSE        1.05 TCPU        0.02
 INFORMATION **** EXCBUF **** EXCH. BIPO BUFFER: WORDS USED =           0

 DFT PARAMETERS

     ATOM       ELECTRONS   NET CHARGE   R(ANGSTROM)
   1 215  P       5.0000      0.0000     1.10000000
   5 230  ZN     20.0000      0.0000     1.37000000
   7 232  GE      4.0000      0.0000     1.39000000

 SIZE OF GRID=      24566
 TTTTTTTTTTTTTTTTTTTTTTTTTTTTTT MAKE_GRID2  TELAPSE        2.83 TCPU        1.80
 BECKE WEIGHT FUNCTION
 RADSAFE =     2.00
 TOLERANCES - DENSITY:10**- 6; POTENTIAL:10**- 9; GRID WGT:10**-14

 RADIAL INTEGRATION  - INTERVALS (POINTS,UPPER LIMIT):            1( 75,  4.0*R)

 ANGULAR INTEGRATION - INTERVALS (ACCURACY LEVEL [N. POINTS] UPPER LIMIT):
  1(  4[  86]   0.2)  2(  8[ 194]   0.5)  3( 12[ 350]   0.9)  4( 16[ 974]   3.5)
  5( 12[ 350]9999.0)
 TTTTTTTTTTTTTTTTTTTTTTTTTTTTTT INT_CALC    TELAPSE        2.87 TCPU        1.84
 EEEEEEEEEE INT_CALC TERMINATION  DATE 05 05 2017 TIME 12:22:46.5

 *******************************************************************************
 TEST39 - ZNGEP2 : LDA : BULK                                                    
 CRYSTAL - SCF - TYPE OF CALCULATION :  RESTRICTED CLOSED SHELL
 *******************************************************************************

 CAPPA:IS1  6;IS2  6;IS3  6; K PTS MONK NET  30; SYMMOPS:K SPACE  16;G SPACE   8

 TTTTTTTTTTTTTTTTTTTTTTTTTTTTTT SDIK        TELAPSE        2.87 TCPU        1.84

 AAAAAAAAAAAAAAAAAAAAAAAAAAAAAAAAAAAAAAAAAAAAAAAAAAAAAAAAAAAAAAAAAAAAAAAAAAAAAAA
         ATOMIC WAVEFUNCTION(S)


 NUCLEAR CHARGE  5.0  SYMMETRY SPECIES            S    P
 N. ELECTRONS    5.0  NUMBER OF PRIMITIVE GTOS    3    3
                      NUMBER OF CONTRACTED GTOS   2    2
                      NUMBER OF CLOSED SHELLS     1    0
                      OPEN SHELL OCCUPATION       0    3

  ZNUC SCFIT  TOTAL HF ENERGY   KINETIC ENERGY   VIRIAL THEOREM ACCURACY
   5.0   3   -6.240968169E+00  2.767641340E+00 -3.254977218E+00  1.9E-06

 NUCLEAR CHARGE 20.0  SYMMETRY SPECIES            S    P    D
 N. ELECTRONS   20.0  NUMBER OF PRIMITIVE GTOS    7    7    6
                      NUMBER OF CONTRACTED GTOS   3    3    3
                      NUMBER OF CLOSED SHELLS     2    1    1
                      OPEN SHELL OCCUPATION       0    0    0

  ZNUC SCFIT  TOTAL HF ENERGY   KINETIC ENERGY   VIRIAL THEOREM ACCURACY
  20.0  18   -2.248555565E+02  1.505909103E+02 -2.493154906E+00  4.1E-06

 NUCLEAR CHARGE  4.0  SYMMETRY SPECIES            S    P
 N. ELECTRONS    4.0  NUMBER OF PRIMITIVE GTOS    4    4
                      NUMBER OF CONTRACTED GTOS   2    2
                      NUMBER OF CLOSED SHELLS     1    0
                      OPEN SHELL OCCUPATION       0    2

  ZNUC SCFIT  TOTAL HF ENERGY   KINETIC ENERGY   VIRIAL THEOREM ACCURACY
   4.0   4   -3.636724520E+00  1.520830406E+00 -3.391275519E+00  1.1E-06

 AAAAAAAAAAAAAAAAAAAAAAAAAAAAAAAAAAAAAAAAAAAAAAAAAAAAAAAAAAAAAAAAAAAAAAAAAAAAAAA

 CHARGE NORMALIZATION FACTOR   1.00000000
 TOTAL ATOMIC CHARGES:
   5.0000000   5.0000000   5.0000000   5.0000000  20.0000000  20.0000000
   4.0000000   4.0000000
 TTTTTTTTTTTTTTTTTTTTTTTTTTTTTT MOQGAD      TELAPSE        2.90 TCPU        1.87
 TTTTTTTTTTTTTTTTTTTTTTTTTTTTTT SHELLXN     TELAPSE        2.97 TCPU        1.94
 TTTTTTTTTTTTTTTTTTTTTTTTTTTTTT MONMO3      TELAPSE        3.15 TCPU        2.12
 NUMERICALLY INTEGRATED DENSITY     68.0000646585
 TTTTTTTTTTTTTTTTTTTTTTTTTTTTTT NUMDFT      TELAPSE        3.21 TCPU        2.18
 CYC   0 ETOT(AU) -4.848590685666E+02 DETOT -4.85E+02 tst  0.00E+00 PX  1.00E+00
 TTTTTTTTTTTTTTTTTTTTTTTTTTTTTT DIIS        TELAPSE        3.21 TCPU        2.18
 TTTTTTTTTTTTTTTTTTTTTTTTTTTTTT FDIK        TELAPSE        3.31 TCPU        2.28
 INSULATING STATE
 TOP OF VALENCE BANDS -    BAND     34; K    1; EIG -6.1142524E-02 AU
 BOTTOM OF VIRTUAL BANDS - BAND     35; K    1; EIG -2.1774626E-02 AU
 DIRECT ENERGY BAND GAP:   1.0713 eV
 TTTTTTTTTTTTTTTTTTTTTTTTTTTTTT PDIG        TELAPSE        3.33 TCPU        2.30
 CHARGE NORMALIZATION FACTOR   1.00000000
 TOTAL ATOMIC CHARGES:
   4.7379812   4.7379812   4.7379812   4.7379812  20.2617864  20.2617864
   4.2622511   4.2622511
 TTTTTTTTTTTTTTTTTTTTTTTTTTTTTT MOQGAD      TELAPSE        3.33 TCPU        2.30
 TTTTTTTTTTTTTTTTTTTTTTTTTTTTTT SHELLXN     TELAPSE        3.42 TCPU        2.38
 TTTTTTTTTTTTTTTTTTTTTTTTTTTTTT MONMO3      TELAPSE        3.60 TCPU        2.57
 NUMERICALLY INTEGRATED DENSITY     68.0000856858
 TTTTTTTTTTTTTTTTTTTTTTTTTTTTTT NUMDFT      TELAPSE        3.71 TCPU        2.68
 CYC   1 ETOT(AU) -4.851435249406E+02 DETOT -2.84E-01 tst  0.00E+00 PX  1.00E+00
 TTTTTTTTTTTTTTTTTTTTTTTTTTTTTT DIIS        TELAPSE        3.73 TCPU        2.70
 DIIS TEST: 0.13796E+01 AT SCF   CYCLE   1 - MIX   40 %
 TTTTTTTTTTTTTTTTTTTTTTTTTTTTTT FDIK        TELAPSE        3.77 TCPU        2.74
 INSULATING STATE
 TOP OF VALENCE BANDS -    BAND     34; K    1; EIG -1.2897504E-01 AU
 BOTTOM OF VIRTUAL BANDS - BAND     35; K    1; EIG -8.1022430E-02 AU
 DIRECT ENERGY BAND GAP:   1.3049 eV
 TTTTTTTTTTTTTTTTTTTTTTTTTTTTTT PDIG        TELAPSE        3.79 TCPU        2.76
 CHARGE NORMALIZATION FACTOR   1.00000000
 TOTAL ATOMIC CHARGES:
   4.6422227   4.6422227   4.6422227   4.6422227  20.6272935  20.6272935
   4.0882611   4.0882611
 TTTTTTTTTTTTTTTTTTTTTTTTTTTTTT MOQGAD      TELAPSE        3.79 TCPU        2.76
 TTTTTTTTTTTTTTTTTTTTTTTTTTTTTT SHELLXN     TELAPSE        3.88 TCPU        2.85
 TTTTTTTTTTTTTTTTTTTTTTTTTTTTTT MONMO3      TELAPSE        4.06 TCPU        3.03
 NUMERICALLY INTEGRATED DENSITY     68.0000803325
 TTTTTTTTTTTTTTTTTTTTTTTTTTTTTT NUMDFT      TELAPSE        4.17 TCPU        3.14
 CYC   2 ETOT(AU) -4.851013837637E+02 DETOT  4.21E-02 tst  8.84E-03 PX  2.11E-01
 TTTTTTTTTTTTTTTTTTTTTTTTTTTTTT DIIS        TELAPSE        4.19 TCPU        3.16
 DIIS TEST: 0.15416E+01 AT SCF   CYCLE   2 - DIIS ACTIVE 
 TTTTTTTTTTTTTTTTTTTTTTTTTTTTTT FDIK        TELAPSE        4.23 TCPU        3.20
 INSULATING STATE
 TOP OF VALENCE BANDS -    BAND     34; K    1; EIG -1.4733983E-01 AU
 BOTTOM OF VIRTUAL BANDS - BAND     35; K    1; EIG -1.0996435E-01 AU
 DIRECT ENERGY BAND GAP:   1.0170 eV
 TTTTTTTTTTTTTTTTTTTTTTTTTTTTTT PDIG        TELAPSE        4.24 TCPU        3.21
 CHARGE NORMALIZATION FACTOR   1.00000000
 TOTAL ATOMIC CHARGES:
   4.7669646   4.7669646   4.7669646   4.7669646  20.2667681  20.2667681
   4.1993027   4.1993027
 TTTTTTTTTTTTTTTTTTTTTTTTTTTTTT MOQGAD      TELAPSE        4.25 TCPU        3.22
 TTTTTTTTTTTTTTTTTTTTTTTTTTTTTT SHELLXN     TELAPSE        4.33 TCPU        3.30
 TTTTTTTTTTTTTTTTTTTTTTTTTTTTTT MONMO3      TELAPSE        4.52 TCPU        3.48
 NUMERICALLY INTEGRATED DENSITY     68.0000815981
 TTTTTTTTTTTTTTTTTTTTTTTTTTTTTT NUMDFT      TELAPSE        4.63 TCPU        3.60
 CYC   3 ETOT(AU) -4.853807024430E+02 DETOT -2.79E-01 tst  2.13E-03 PX  1.66E-01
 TTTTTTTTTTTTTTTTTTTTTTTTTTTTTT DIIS        TELAPSE        4.65 TCPU        3.61
 DIIS TEST: 0.25916E-02 AT SCF   CYCLE   3 - DIIS ACTIVE 
 TTTTTTTTTTTTTTTTTTTTTTTTTTTTTT FDIK        TELAPSE        4.69 TCPU        3.66
 INSULATING STATE
 TOP OF VALENCE BANDS -    BAND     34; K    1; EIG -1.3902227E-01 AU
 BOTTOM OF VIRTUAL BANDS - BAND     35; K    1; EIG -9.7459665E-02 AU
 DIRECT ENERGY BAND GAP:   1.1310 eV
 TTTTTTTTTTTTTTTTTTTTTTTTTTTTTT PDIG        TELAPSE        4.70 TCPU        3.67
 CHARGE NORMALIZATION FACTOR   1.00000000
 TOTAL ATOMIC CHARGES:
   4.7241401   4.7241401   4.7241401   4.7241401  20.4012532  20.4012532
   4.1504667   4.1504667
 TTTTTTTTTTTTTTTTTTTTTTTTTTTTTT MOQGAD      TELAPSE        4.70 TCPU        3.68
 TTTTTTTTTTTTTTTTTTTTTTTTTTTTTT SHELLXN     TELAPSE        4.79 TCPU        3.76
 TTTTTTTTTTTTTTTTTTTTTTTTTTTTTT MONMO3      TELAPSE        4.97 TCPU        3.94
 NUMERICALLY INTEGRATED DENSITY     68.0000815508
 TTTTTTTTTTTTTTTTTTTTTTTTTTTTTT NUMDFT      TELAPSE        5.08 TCPU        4.05
 CYC   4 ETOT(AU) -4.853818661232E+02 DETOT -1.16E-03 tst  1.08E-04 PX  4.96E-02
 TTTTTTTTTTTTTTTTTTTTTTTTTTTTTT DIIS        TELAPSE        5.10 TCPU        4.07
 DIIS TEST: 0.89285E-03 AT SCF   CYCLE   4 - DIIS ACTIVE 
 TTTTTTTTTTTTTTTTTTTTTTTTTTTTTT FDIK        TELAPSE        5.14 TCPU        4.11
 INSULATING STATE
 TOP OF VALENCE BANDS -    BAND     34; K    1; EIG -1.3953116E-01 AU
 BOTTOM OF VIRTUAL BANDS - BAND     35; K    1; EIG -9.9568972E-02 AU
 DIRECT ENERGY BAND GAP:   1.0874 eV
 TTTTTTTTTTTTTTTTTTTTTTTTTTTTTT PDIG        TELAPSE        5.16 TCPU        4.12
 CHARGE NORMALIZATION FACTOR   1.00000000
 TOTAL ATOMIC CHARGES:
   4.7339671   4.7339671   4.7339671   4.7339671  20.3446584  20.3446584
   4.1874073   4.1874073
 TTTTTTTTTTTTTTTTTTTTTTTTTTTTTT MOQGAD      TELAPSE        5.16 TCPU        4.13
 TTTTTTTTTTTTTTTTTTTTTTTTTTTTTT SHELLXN     TELAPSE        5.24 TCPU        4.21
 TTTTTTTTTTTTTTTTTTTTTTTTTTTTTT MONMO3      TELAPSE        5.43 TCPU        4.39
 NUMERICALLY INTEGRATED DENSITY     68.0000818889
 TTTTTTTTTTTTTTTTTTTTTTTTTTTTTT NUMDFT      TELAPSE        5.54 TCPU        4.51
 CYC   5 ETOT(AU) -4.853826235388E+02 DETOT -7.57E-04 tst  2.20E-05 PX  2.36E-02
 TTTTTTTTTTTTTTTTTTTTTTTTTTTTTT DIIS        TELAPSE        5.56 TCPU        4.52
 DIIS TEST: 0.70487E-04 AT SCF   CYCLE   5 - DIIS ACTIVE 
 TTTTTTTTTTTTTTTTTTTTTTTTTTTTTT FDIK        TELAPSE        5.60 TCPU        4.57
 INSULATING STATE
 TOP OF VALENCE BANDS -    BAND     34; K    1; EIG -1.4022692E-01 AU
 BOTTOM OF VIRTUAL BANDS - BAND     35; K    1; EIG -9.9942747E-02 AU
 DIRECT ENERGY BAND GAP:   1.0962 eV
 TTTTTTTTTTTTTTTTTTTTTTTTTTTTTT PDIG        TELAPSE        5.61 TCPU        4.58
 CHARGE NORMALIZATION FACTOR   1.00000000
 TOTAL ATOMIC CHARGES:
   4.7398058   4.7398058   4.7398058   4.7398058  20.3451821  20.3451821
   4.1752064   4.1752064
 TTTTTTTTTTTTTTTTTTTTTTTTTTTTTT MOQGAD      TELAPSE        5.62 TCPU        4.59
 TTTTTTTTTTTTTTTTTTTTTTTTTTTTTT SHELLXN     TELAPSE        5.70 TCPU        4.67
 TTTTTTTTTTTTTTTTTTTTTTTTTTTTTT MONMO3      TELAPSE        5.88 TCPU        4.85
 NUMERICALLY INTEGRATED DENSITY     68.0000817757
 TTTTTTTTTTTTTTTTTTTTTTTTTTTTTT NUMDFT      TELAPSE        6.00 TCPU        4.96
 CYC   6 ETOT(AU) -4.853826439144E+02 DETOT -2.04E-05 tst  5.60E-07 PX  2.59E-03
 TTTTTTTTTTTTTTTTTTTTTTTTTTTTTT DIIS        TELAPSE        6.02 TCPU        4.98
 DIIS TEST: 0.75585E-05 AT SCF   CYCLE   6 - DIIS ACTIVE 
 TTTTTTTTTTTTTTTTTTTTTTTTTTTTTT FDIK        TELAPSE        6.06 TCPU        5.02
 INSULATING STATE
 TOP OF VALENCE BANDS -    BAND     34; K    1; EIG -1.4009772E-01 AU
 BOTTOM OF VIRTUAL BANDS - BAND     35; K    1; EIG -9.9913186E-02 AU
 DIRECT ENERGY BAND GAP:   1.0935 eV
 TTTTTTTTTTTTTTTTTTTTTTTTTTTTTT PDIG        TELAPSE        6.07 TCPU        5.04
 CHARGE NORMALIZATION FACTOR   1.00000000
 TOTAL ATOMIC CHARGES:
   4.7367917   4.7367917   4.7367917   4.7367917  20.3477247  20.3477247
   4.1786919   4.1786919
 TTTTTTTTTTTTTTTTTTTTTTTTTTTTTT MOQGAD      TELAPSE        6.07 TCPU        5.04
 TTTTTTTTTTTTTTTTTTTTTTTTTTTTTT SHELLXN     TELAPSE        6.16 TCPU        5.12
 TTTTTTTTTTTTTTTTTTTTTTTTTTTTTT MONMO3      TELAPSE        6.34 TCPU        5.31
 NUMERICALLY INTEGRATED DENSITY     68.0000817974
 TTTTTTTTTTTTTTTTTTTTTTTTTTTTTT NUMDFT      TELAPSE        6.45 TCPU        5.42
 CYC   7 ETOT(AU) -4.853826476792E+02 DETOT -3.76E-06 tst  5.78E-08 PX  1.19E-03
 TTTTTTTTTTTTTTTTTTTTTTTTTTTTTT DIIS        TELAPSE        6.47 TCPU        5.44
 DIIS TEST: 0.83365E-07 AT SCF   CYCLE   7 - DIIS ACTIVE 
 TTTTTTTTTTTTTTTTTTTTTTTTTTTTTT FDIK        TELAPSE        6.51 TCPU        5.48
 INSULATING STATE
 TOP OF VALENCE BANDS -    BAND     34; K    1; EIG -1.4009677E-01 AU
 BOTTOM OF VIRTUAL BANDS - BAND     35; K    1; EIG -9.9904471E-02 AU
 DIRECT ENERGY BAND GAP:   1.0937 eV
 TTTTTTTTTTTTTTTTTTTTTTTTTTTTTT PDIG        TELAPSE        6.53 TCPU        5.49
 CHARGE NORMALIZATION FACTOR   1.00000000
 TOTAL ATOMIC CHARGES:
   4.7369316   4.7369316   4.7369316   4.7369316  20.3475309  20.3475309
   4.1786059   4.1786059
 TTTTTTTTTTTTTTTTTTTTTTTTTTTTTT MOQGAD      TELAPSE        6.53 TCPU        5.50
 TTTTTTTTTTTTTTTTTTTTTTTTTTTTTT SHELLXN     TELAPSE        6.61 TCPU        5.58
 TTTTTTTTTTTTTTTTTTTTTTTTTTTTTT MONMO3      TELAPSE        6.80 TCPU        5.76
 NUMERICALLY INTEGRATED DENSITY     68.0000817965
 TTTTTTTTTTTTTTTTTTTTTTTTTTTTTT NUMDFT      TELAPSE        6.91 TCPU        5.88
 CYC   8 ETOT(AU) -4.853826477426E+02 DETOT -6.35E-08 tst  5.17E-10 PX  9.40E-05
 TTTTTTTTTTTTTTTTTTTTTTTTTTTTTT DIIS        TELAPSE        6.93 TCPU        5.89
 DIIS TEST: 0.56328E-09 AT SCF   CYCLE   8 - DIIS ACTIVE 
 TTTTTTTTTTTTTTTTTTTTTTTTTTTTTT FDIK        TELAPSE        6.97 TCPU        5.93
 INSULATING STATE
 TOP OF VALENCE BANDS -    BAND     34; K    1; EIG -1.4009434E-01 AU
 BOTTOM OF VIRTUAL BANDS - BAND     35; K    1; EIG -9.9902831E-02 AU
 DIRECT ENERGY BAND GAP:   1.0937 eV
 TTTTTTTTTTTTTTTTTTTTTTTTTTTTTT PDIG        TELAPSE        6.98 TCPU        5.94
 CHARGE NORMALIZATION FACTOR   1.00000000
 TOTAL ATOMIC CHARGES:
   4.7369317   4.7369317   4.7369317   4.7369317  20.3475265  20.3475265
   4.1786100   4.1786100
 TTTTTTTTTTTTTTTTTTTTTTTTTTTTTT MOQGAD      TELAPSE        6.99 TCPU        5.95
 TTTTTTTTTTTTTTTTTTTTTTTTTTTTTT SHELLXN     TELAPSE        7.07 TCPU        6.04
 +++ ENERGIES IN A.U. +++
 ::: EXT EL-POLE                                  -9.3243804101261E+02
 ::: EXT EL-SPHEROPOLE                             1.4443194594830E+01
 ::: BIELET ZONE E-E                               1.1745779689629E+03
 ::: TOTAL E-E                                     2.5658312254515E+02
 ::: TOTAL E-N + N-E                              -8.0488488415641E+02
 ::: TOTAL N-N                                    -1.9958694589999E+02
 ::: KINETIC ENERGY                                3.1255343226525E+02
 ::: PSEUDO TOTAL   ENERGY                        -4.3533527524600E+02
 ::: VIRIAL COEFFICIENT                            8.3582872458480E-01
 TTTTTTTTTTTTTTTTTTTTTTTTTTTTTT MONMO3      TELAPSE        7.25 TCPU        6.22
 NUMERICALLY INTEGRATED DENSITY     68.0000817969
 TTTTTTTTTTTTTTTTTTTTTTTTTTTTTT NUMDFT      TELAPSE        7.36 TCPU        6.33
 CYC   9 ETOT(AU) -4.853826477365E+02 DETOT  6.16E-09 tst  5.03E-12 PX  9.40E-05

 == SCF ENDED - CONVERGENCE ON ENERGY      E(AU) -4.8538264773648E+02 CYCLES   9


 ENERGY EXPRESSION=HARTREE+FOCK EXCH*0.00000+(LDA        EXCH)*1.00000+PZ         CORR


 TOTAL ENERGY(DFT)(AU)(  9) -4.8538264773648E+02 DE 6.2E-09 tester 5.0E-12
 TTTTTTTTTTTTTTTTTTTTTTTTTTTTTT EDFT        TELAPSE        7.36 TCPU        6.33
 EIGENVECTORS IN FORTRAN UNIT 10
 TTTTTTTTTTTTTTTTTTTTTTTTTTTTTT END         TELAPSE        7.38 TCPU        6.35
 EEEEEEEEEE TERMINATION  DATE 05 05 2017 TIME 12:22:51.0
NODE    0 CPU TIME =         6.348
NODE    1 CPU TIME =         6.360
NODE    2 CPU TIME =         6.356
NODE    3 CPU TIME =         6.360
NODE    4 CPU TIME =         6.360
NODE    5 CPU TIME =         6.360
NODE    6 CPU TIME =         6.356
NODE    7 CPU TIME =         6.356
    TOTAL CPU TIME =        50.859
Fri May  5 12:22:51 CEST 2017
total 45088
-rw-r----- 1 develop users     1503 May  5 12:22 INPUT
-rwxr-xr-x 1 develop users 38528159 May  5 12:22 Pcrystal-156686
lrwxrwxrwx 1 develop users       49 May  5 12:22 SCFOUT.LOG -> /home0/develop/TEST_STD_CRY17/std/test39_dft.out2
-rw------- 1 develop users        0 May  5 12:22 dffit3.dat
-rw------- 1 develop users   176040 May  5 12:22 diis_Fg
-rw------- 1 develop users        0 May  5 12:22 diis_Sk.pe0
-rw------- 1 develop users        0 May  5 12:22 diis_Sk.pe1
-rw------- 1 develop users        0 May  5 12:22 diis_Sk.pe2
-rw------- 1 develop users        0 May  5 12:22 diis_Sk.pe3
-rw------- 1 develop users        0 May  5 12:22 diis_Sk.pe4
-rw------- 1 develop users        0 May  5 12:22 diis_Sk.pe5
-rw------- 1 develop users        0 May  5 12:22 diis_Sk.pe6
-rw------- 1 develop users        0 May  5 12:22 diis_Sk.pe7
-rw------- 1 develop users        0 May  5 12:22 diis_err1.pe0
-rw------- 1 develop users        0 May  5 12:22 diis_err1.pe1
-rw------- 1 develop users        0 May  5 12:22 diis_err1.pe2
-rw------- 1 develop users     9280 May  5 12:22 diis_err1.pe3
-rw------- 1 develop users    14464 May  5 12:22 diis_err1.pe4
-rw------- 1 develop users    14464 May  5 12:22 diis_err1.pe5
-rw------- 1 develop users    36928 May  5 12:22 diis_err1.pe6
-rw------- 1 develop users     9280 May  5 12:22 diis_err1.pe7
-rw------- 1 develop users        0 May  5 12:22 diis_err2.pe0
-rw------- 1 develop users        0 May  5 12:22 diis_err2.pe1
-rw------- 1 develop users        0 May  5 12:22 diis_err2.pe2
-rw------- 1 develop users     8120 May  5 12:22 diis_err2.pe3
-rw------- 1 develop users    12656 May  5 12:22 diis_err2.pe4
-rw------- 1 develop users    12656 May  5 12:22 diis_err2.pe5
-rw------- 1 develop users    32312 May  5 12:22 diis_err2.pe6
-rw------- 1 develop users     8120 May  5 12:22 diis_err2.pe7
-rw------- 1 develop users        0 May  5 12:22 fort.1.pe0
-rw------- 1 develop users        0 May  5 12:22 fort.1.pe1
-rw------- 1 develop users        0 May  5 12:22 fort.1.pe2
-rw------- 1 develop users        0 May  5 12:22 fort.1.pe3
-rw------- 1 develop users        0 May  5 12:22 fort.1.pe4
-rw------- 1 develop users        0 May  5 12:22 fort.1.pe5
-rw------- 1 develop users        0 May  5 12:22 fort.1.pe6
-rw------- 1 develop users        0 May  5 12:22 fort.1.pe7
-rw------- 1 develop users   163200 May  5 12:22 fort.10.pe0
-rw------- 1 develop users   437088 May  5 12:22 fort.10.pe1
-rw------- 1 develop users   541128 May  5 12:22 fort.10.pe2
-rw------- 1 develop users   429024 May  5 12:22 fort.10.pe3
-rw------- 1 develop users   459624 May  5 12:22 fort.10.pe4
-rw------- 1 develop users   334776 May  5 12:22 fort.10.pe5
-rw------- 1 develop users   342200 May  5 12:22 fort.10.pe6
-rw------- 1 develop users   317936 May  5 12:22 fort.10.pe7
-rw------- 1 develop users    19560 May  5 12:22 fort.11.pe0
-rw------- 1 develop users    19560 May  5 12:22 fort.11.pe1
-rw------- 1 develop users    19560 May  5 12:22 fort.11.pe2
-rw------- 1 develop users    19560 May  5 12:22 fort.11.pe3
-rw------- 1 develop users    19560 May  5 12:22 fort.11.pe4
-rw------- 1 develop users    19560 May  5 12:22 fort.11.pe5
-rw------- 1 develop users    19560 May  5 12:22 fort.11.pe6
-rw------- 1 develop users    19560 May  5 12:22 fort.11.pe7
-rw------- 1 develop users        0 May  5 12:22 fort.17.pe1
-rw------- 1 develop users        0 May  5 12:22 fort.17.pe2
-rw------- 1 develop users        0 May  5 12:22 fort.17.pe3
-rw------- 1 develop users        0 May  5 12:22 fort.17.pe4
-rw------- 1 develop users        0 May  5 12:22 fort.17.pe5
-rw------- 1 develop users        0 May  5 12:22 fort.17.pe6
-rw------- 1 develop users        0 May  5 12:22 fort.17.pe7
-rw------- 1 develop users        0 May  5 12:22 fort.18.pe0
-rw------- 1 develop users        0 May  5 12:22 fort.18.pe1
-rw------- 1 develop users        0 May  5 12:22 fort.18.pe2
-rw------- 1 develop users        0 May  5 12:22 fort.18.pe3
-rw------- 1 develop users        0 May  5 12:22 fort.18.pe4
-rw------- 1 develop users        0 May  5 12:22 fort.18.pe5
-rw------- 1 develop users        0 May  5 12:22 fort.18.pe6
-rw------- 1 develop users        0 May  5 12:22 fort.18.pe7
-rw------- 1 develop users        0 May  5 12:22 fort.19.pe0
-rw------- 1 develop users        0 May  5 12:22 fort.19.pe1
-rw------- 1 develop users        0 May  5 12:22 fort.19.pe2
-rw------- 1 develop users        0 May  5 12:22 fort.19.pe3
-rw------- 1 develop users        0 May  5 12:22 fort.19.pe4
-rw------- 1 develop users        0 May  5 12:22 fort.19.pe5
-rw------- 1 develop users        0 May  5 12:22 fort.19.pe6
-rw------- 1 develop users        0 May  5 12:22 fort.19.pe7
-rw------- 1 develop users        0 May  5 12:22 fort.28.pe0
-rw------- 1 develop users        0 May  5 12:22 fort.28.pe1
-rw------- 1 develop users        0 May  5 12:22 fort.28.pe2
-rw------- 1 develop users        0 May  5 12:22 fort.28.pe3
-rw------- 1 develop users        0 May  5 12:22 fort.28.pe4
-rw------- 1 develop users        0 May  5 12:22 fort.28.pe5
-rw------- 1 develop users        0 May  5 12:22 fort.28.pe6
-rw------- 1 develop users        0 May  5 12:22 fort.28.pe7
-rw------- 1 develop users        0 May  5 12:22 fort.29.pe0
-rw------- 1 develop users        0 May  5 12:22 fort.29.pe1
-rw------- 1 develop users        0 May  5 12:22 fort.29.pe2
-rw------- 1 develop users        0 May  5 12:22 fort.29.pe3
-rw------- 1 develop users        0 May  5 12:22 fort.29.pe4
-rw------- 1 develop users        0 May  5 12:22 fort.29.pe5
-rw------- 1 develop users        0 May  5 12:22 fort.29.pe6
-rw------- 1 develop users        0 May  5 12:22 fort.29.pe7
-rw------- 1 develop users        0 May  5 12:22 fort.3.pe0
-rw------- 1 develop users        0 May  5 12:22 fort.3.pe1
-rw------- 1 develop users        0 May  5 12:22 fort.3.pe2
-rw------- 1 develop users        0 May  5 12:22 fort.3.pe3
-rw------- 1 develop users        0 May  5 12:22 fort.3.pe4
-rw------- 1 develop users        0 May  5 12:22 fort.3.pe5
-rw------- 1 develop users        0 May  5 12:22 fort.3.pe6
-rw------- 1 develop users        0 May  5 12:22 fort.3.pe7
-rw------- 1 develop users        0 May  5 12:22 fort.38.pe0
-rw------- 1 develop users        0 May  5 12:22 fort.38.pe1
-rw------- 1 develop users        0 May  5 12:22 fort.38.pe2
-rw------- 1 develop users        0 May  5 12:22 fort.38.pe3
-rw------- 1 develop users        0 May  5 12:22 fort.38.pe4
-rw------- 1 develop users        0 May  5 12:22 fort.38.pe5
-rw------- 1 develop users        0 May  5 12:22 fort.38.pe6
-rw------- 1 develop users        0 May  5 12:22 fort.38.pe7
-rw------- 1 develop users        0 May  5 12:22 fort.40.pe0
-rw------- 1 develop users        0 May  5 12:22 fort.40.pe1
-rw------- 1 develop users        0 May  5 12:22 fort.40.pe2
-rw------- 1 develop users        0 May  5 12:22 fort.40.pe3
-rw------- 1 develop users        0 May  5 12:22 fort.40.pe4
-rw------- 1 develop users        0 May  5 12:22 fort.40.pe5
-rw------- 1 develop users        0 May  5 12:22 fort.40.pe6
-rw------- 1 develop users        0 May  5 12:22 fort.40.pe7
-rw------- 1 develop users     9000 May  5 12:22 fort.61.pe0
-rw------- 1 develop users    13064 May  5 12:22 fort.61.pe1
-rw------- 1 develop users    14760 May  5 12:22 fort.61.pe2
-rw------- 1 develop users    18696 May  5 12:22 fort.61.pe3
-rw------- 1 develop users    21832 May  5 12:22 fort.61.pe4
-rw------- 1 develop users    12960 May  5 12:22 fort.61.pe5
-rw------- 1 develop users    19032 May  5 12:22 fort.61.pe6
-rw------- 1 develop users    25540 May  5 12:22 fort.61.pe7
-rw------- 1 develop users    16736 May  5 12:22 fort.62.pe0
-rw------- 1 develop users    10976 May  5 12:22 fort.62.pe1
-rw------- 1 develop users     8096 May  5 12:22 fort.62.pe2
-rw------- 1 develop users     8896 May  5 12:22 fort.62.pe3
-rw------- 1 develop users     8448 May  5 12:22 fort.62.pe4
-rw------- 1 develop users    13856 May  5 12:22 fort.62.pe5
-rw------- 1 develop users    12576 May  5 12:22 fort.62.pe6
-rw------- 1 develop users    10448 May  5 12:22 fort.62.pe7
-rw------- 1 develop users   163200 May  5 12:22 fort.8.pe0
-rw------- 1 develop users   437088 May  5 12:22 fort.8.pe1
-rw------- 1 develop users   541128 May  5 12:22 fort.8.pe2
-rw------- 1 develop users   429024 May  5 12:22 fort.8.pe3
-rw------- 1 develop users   459624 May  5 12:22 fort.8.pe4
-rw------- 1 develop users   334776 May  5 12:22 fort.8.pe5
-rw------- 1 develop users   342200 May  5 12:22 fort.8.pe6
-rw------- 1 develop users   317936 May  5 12:22 fort.8.pe7
-rw------- 1 develop users        0 May  5 12:22 fort.82.pe0
-rw------- 1 develop users        0 May  5 12:22 fort.82.pe1
-rw------- 1 develop users        0 May  5 12:22 fort.82.pe2
-rw------- 1 develop users        0 May  5 12:22 fort.82.pe3
-rw------- 1 develop users        0 May  5 12:22 fort.82.pe4
-rw------- 1 develop users        0 May  5 12:22 fort.82.pe5
-rw------- 1 develop users        0 May  5 12:22 fort.82.pe6
-rw------- 1 develop users        0 May  5 12:22 fort.82.pe7
-rw------- 1 develop users        0 May  5 12:22 fort.83.pe0
-rw------- 1 develop users        0 May  5 12:22 fort.83.pe1
-rw------- 1 develop users        0 May  5 12:22 fort.83.pe2
-rw------- 1 develop users        0 May  5 12:22 fort.83.pe3
-rw------- 1 develop users        0 May  5 12:22 fort.83.pe4
-rw------- 1 develop users        0 May  5 12:22 fort.83.pe5
-rw------- 1 develop users        0 May  5 12:22 fort.83.pe6
-rw------- 1 develop users        0 May  5 12:22 fort.83.pe7
-rw------- 1 develop users   151272 May  5 12:22 fort.9
-rw------- 1 develop users    25976 May  5 12:22 fort.95.pe0
-rw------- 1 develop users    25976 May  5 12:22 fort.95.pe1
-rw------- 1 develop users    25976 May  5 12:22 fort.95.pe2
-rw------- 1 develop users    25976 May  5 12:22 fort.95.pe3
-rw------- 1 develop users    25976 May  5 12:22 fort.95.pe4
-rw------- 1 develop users    25976 May  5 12:22 fort.95.pe5
-rw------- 1 develop users    25976 May  5 12:22 fort.95.pe6
-rw------- 1 develop users    25976 May  5 12:22 fort.95.pe7
-rw------- 1 develop users   386679 May  5 12:22 fort.98
